INSANE! Membrane UpperLeaflet>DOPC:PF10C=99.0:1.0 LowerLeaflet>DOPC:PF10C=99.0:1.0
16967
    1DOPC   NC3    1  13.367   9.021   6.950
    1DOPC   PO4    2  13.397   9.086   6.650
    1DOPC   GL1    3  13.414   9.068   6.350
    1DOPC   GL2    4  13.511   8.858   6.350
    1DOPC   C1A    5  13.388   9.043   6.050
    1DOPC   D2A    6  13.420   9.084   5.750
    1DOPC   C3A    7  13.393   9.054   5.450
    1DOPC   C4A    8  13.444   9.008   5.150
    1DOPC   C1B    9  13.612   8.708   6.050
    1DOPC   D2B   10  13.605   8.749   5.750
    1DOPC   C3B   11  13.571   8.769   5.450
    1DOPC   C4B   12  13.585   8.745   5.150
    2DOPC   NC3   13   1.825   4.434   6.950
    2DOPC   PO4   14   1.855   4.381   6.650
    2DOPC   GL1   15   1.861   4.438   6.350
    2DOPC   GL2   16   1.978   4.292   6.350
    2DOPC   C1A   17   1.806   4.449   6.050
    2DOPC   D2A   18   1.860   4.366   5.750
    2DOPC   C3A   19   1.835   4.378   5.450
    2DOPC   C4A   20   1.893   4.393   5.150
    2DOPC   C1B   21   2.126   4.189   6.050
    2DOPC   D2B   22   2.135   4.145   5.750
    2DOPC   C3B   23   2.138   4.132   5.450
    2DOPC   C4B   24   2.144   4.180   5.150
    3DOPC   NC3   25   8.113   8.332   6.950
    3DOPC   PO4   26   8.064   8.271   6.650
    3DOPC   GL1   27   8.060   8.288   6.350
    3DOPC   GL2   28   8.113   8.140   6.350
    3DOPC   C1A   29   8.147   8.261   6.050
    3DOPC   D2A   30   8.082   8.289   5.750
    3DOPC   C3A   31   8.088   8.340   5.450
    3DOPC   C4A   32   8.137   8.282   5.150
    3DOPC   C1B   33   8.126   7.963   6.050
    3DOPC   D2B   34   8.110   7.905   5.750
    3DOPC   C3B   35   8.131   7.962   5.450
    3DOPC   C4B   36   8.117   7.992   5.150
    4DOPC   NC3   37   9.795   8.707   6.950
    4DOPC   PO4   38   9.727   8.769   6.650
    4DOPC   GL1   39   9.744   8.768   6.350
    4DOPC   GL2   40   9.634   8.942   6.350
    4DOPC   C1A   41   9.766   8.770   6.050
    4DOPC   D2A   42   9.807   8.721   5.750
    4DOPC   C3A   43   9.782   8.796   5.450
    4DOPC   C4A   44   9.820   8.737   5.150
    4DOPC   C1B   45   9.604   8.991   6.050
    4DOPC   D2B   46   9.543   9.059   5.750
    4DOPC   C3B   47   9.524   9.024   5.450
    4DOPC   C4B   48   9.552   9.045   5.150
    5DOPC   NC3   49  18.173   7.920   6.950
    5DOPC   PO4   50  18.162   7.968   6.650
    5DOPC   GL1   51  18.174   7.949   6.350
    5DOPC   GL2   52  18.103   8.099   6.350
    5DOPC   C1A   53  18.208   7.938   6.050
    5DOPC   D2A   54  18.163   7.966   5.750
    5DOPC   C3A   55  18.172   7.988   5.450
    5DOPC   C4A   56  18.145   7.928   5.150
    5DOPC   C1B   57  18.105   8.276   6.050
    5DOPC   D2B   58  18.046   8.323   5.750
    5DOPC   C3B   59  18.037   8.305   5.450
    5DOPC   C4B   60  18.057   8.292   5.150
    6DOPC   NC3   61  13.680   9.700   6.950
    6DOPC   PO4   62  13.689   9.701   6.650
    6DOPC   GL1   63  13.680   9.631   6.350
    6DOPC   GL2   64  13.486   9.671   6.350
    6DOPC   C1A   65  13.669   9.690   6.050
    6DOPC   D2A   66  13.730   9.660   5.750
    6DOPC   C3A   67  13.676   9.636   5.450
    6DOPC   C4A   68  13.646   9.643   5.150
    6DOPC   C1B   69  13.301   9.687   6.050
    6DOPC   D2B   70  13.342   9.700   5.750
    6DOPC   C3B   71  13.290   9.661   5.450
    6DOPC   C4B   72  13.381   9.612   5.150
    7DOPC   NC3   73  19.617   9.805   6.950
    7DOPC   PO4   74  19.616   9.828   6.650
    7DOPC   GL1   75  19.543   9.870   6.350
    7DOPC   GL2   76  19.671   9.616   6.350
    7DOPC   C1A   77  19.612   9.869   6.050
    7DOPC   D2A   78  19.554   9.812   5.750
    7DOPC   C3A   79  19.596   9.797   5.450
    7DOPC   C4A   80  19.613   9.867   5.150
    7DOPC   C1B   81  19.699   9.492   6.050
    7DOPC   D2B   82  19.782   9.465   5.750
    7DOPC   C3B   83  19.703   9.532   5.450
    7DOPC   C4B   84  19.716   9.486   5.150
    8DOPC   NC3   85  11.051   5.853   6.950
    8DOPC   PO4   86  11.047   5.806   6.650
    8DOPC   GL1   87  11.068   5.845   6.350
    8DOPC   GL2   88  11.204   5.775   6.350
    8DOPC   C1A   89  11.037   5.798   6.050
    8DOPC   D2A   90  11.021   5.779   5.750
    8DOPC   C3A   91  11.044   5.798   5.450
    8DOPC   C4A   92  11.044   5.841   5.150
    8DOPC   C1B   93  11.384   5.835   6.050
    8DOPC   D2B   94  11.386   5.803   5.750
    8DOPC   C3B   95  11.427   5.821   5.450
    8DOPC   C4B   96  11.355   5.833   5.150
    9DOPC   NC3   97  12.094   8.777   6.950
    9DOPC   PO4   98  12.106   8.759   6.650
    9DOPC   GL1   99  12.044   8.762   6.350
    9DOPC   GL2  100  12.006   8.940   6.350
    9DOPC   C1A  101  12.089   8.727   6.050
    9DOPC   D2A  102  12.113   8.764   5.750
    9DOPC   C3A  103  12.044   8.707   5.450
    9DOPC   C4A  104  12.127   8.800   5.150
    9DOPC   C1B  105  11.882   9.080   6.050
    9DOPC   D2B  106  11.877   9.002   5.750
    9DOPC   C3B  107  11.840   9.028   5.450
    9DOPC   C4B  108  11.819   9.001   5.150
   10DOPC   NC3  109   1.861   8.793   6.950
   10DOPC   PO4  110   1.867   8.752   6.650
   10DOPC   GL1  111   1.816   8.778   6.350
   10DOPC   GL2  112   1.955   8.890   6.350
   10DOPC   C1A  113   1.837   8.735   6.050
   10DOPC   D2A  114   1.846   8.763   5.750
   10DOPC   C3A  115   1.877   8.802   5.450
   10DOPC   C4A  116   1.885   8.717   5.150
   10DOPC   C1B  117   2.131   9.003   6.050
   10DOPC   D2B  118   2.145   9.047   5.750
   10DOPC   C3B  119   2.066   9.038   5.450
   10DOPC   C4B  120   2.082   9.053   5.150
   11DOPC   NC3  121  12.163   9.715   6.950
   11DOPC   PO4  122  12.129   9.694   6.650
   11DOPC   GL1  123  12.162   9.655   6.350
   11DOPC   GL2  124  11.956   9.641   6.350
   11DOPC   C1A  125  12.138   9.715   6.050
   11DOPC   D2A  126  12.142   9.667   5.750
   11DOPC   C3A  127  12.159   9.642   5.450
   11DOPC   C4A  128  12.155   9.644   5.150
   11DOPC   C1B  129  11.811   9.605   6.050
   11DOPC   D2B  130  11.794   9.679   5.750
   11DOPC   C3B  131  11.775   9.682   5.450
   11DOPC   C4B  132  11.801   9.634   5.150
   12DOPC   NC3  133   0.249   0.428   6.950
   12DOPC   PO4  134   0.275   0.425   6.650
   12DOPC   GL1  135   0.305   0.439   6.350
   12DOPC   GL2  136   0.388   0.462   6.350
   12DOPC   C1A  137   0.241   0.424   6.050
   12DOPC   D2A  138   0.221   0.415   5.750
   12DOPC   C3A  139   0.215   0.472   5.450
   12DOPC   C4A  140   0.218   0.499   5.150
   12DOPC   C1B  141   0.627   0.412   6.050
   12DOPC   D2B  142   0.569   0.417   5.750
   12DOPC   C3B  143   0.624   0.408   5.450
   12DOPC   C4B  144   0.596   0.389   5.150
   13DOPC   NC3  145  17.555   6.569   6.950
   13DOPC   PO4  146  17.558   6.602   6.650
   13DOPC   GL1  147  17.485   6.661   6.350
   13DOPC   GL2  148  17.309   6.636   6.350
   13DOPC   C1A  149  17.540   6.570   6.050
   13DOPC   D2A  150  17.551   6.620   5.750
   13DOPC   C3A  151  17.517   6.661   5.450
   13DOPC   C4A  152  17.556   6.654   5.150
   13DOPC   C1B  153  17.202   6.513   6.050
   13DOPC   D2B  154  17.137   6.592   5.750
   13DOPC   C3B  155  17.162   6.559   5.450
   13DOPC   C4B  156  17.141   6.536   5.150
   14DOPC   NC3  157   2.593   2.810   6.950
   14DOPC   PO4  158   2.604   2.822   6.650
   14DOPC   GL1  159   2.550   2.749   6.350
   14DOPC   GL2  160   2.732   2.714   6.350
   14DOPC   C1A  161   2.610   2.787   6.050
   14DOPC   D2A  162   2.588   2.778   5.750
   14DOPC   C3A  163   2.520   2.800   5.450
   14DOPC   C4A  164   2.612   2.744   5.150
   14DOPC   C1B  165   2.888   2.704   6.050
   14DOPC   D2B  166   2.908   2.667   5.750
   14DOPC   C3B  167   2.947   2.686   5.450
   14DOPC   C4B  168   2.903   2.697   5.150
   15DOPC   NC3  169   0.620   8.798   6.950
   15DOPC   PO4  170   0.614   8.837   6.650
   15DOPC   GL1  171   0.582   8.793   6.350
   15DOPC   GL2  172   0.389   8.913   6.350
   15DOPC   C1A  173   0.640   8.878   6.050
   15DOPC   D2A  174   0.573   8.783   5.750
   15DOPC   C3A  175   0.572   8.853   5.450
   15DOPC   C4A  176   0.625   8.808   5.150
   15DOPC   C1B  177   0.296   8.963   6.050
   15DOPC   D2B  178   0.298   8.977   5.750
   15DOPC   C3B  179   0.304   9.005   5.450
   15DOPC   C4B  180   0.256   8.926   5.150
   16DOPC   NC3  181  12.661   6.688   6.950
   16DOPC   PO4  182  12.685   6.731   6.650
   16DOPC   GL1  183  12.622   6.734   6.350
   16DOPC   GL2  184  12.723   6.576   6.350
   16DOPC   C1A  185  12.663   6.727   6.050
   16DOPC   D2A  186  12.659   6.732   5.750
   16DOPC   C3A  187  12.676   6.756   5.450
   16DOPC   C4A  188  12.615   6.764   5.150
   16DOPC   C1B  189  12.837   6.485   6.050
   16DOPC   D2B  190  12.831   6.397   5.750
   16DOPC   C3B  191  12.799   6.468   5.450
   16DOPC   C4B  192  12.815   6.417   5.150
   17DOPC   NC3  193   3.386   9.028   6.950
   17DOPC   PO4  194   3.394   8.988   6.650
   17DOPC   GL1  195   3.434   9.002   6.350
   17DOPC   GL2  196   3.515   8.907   6.350
   17DOPC   C1A  197   3.396   9.024   6.050
   17DOPC   D2A  198   3.432   9.011   5.750
   17DOPC   C3A  199   3.366   9.002   5.450
   17DOPC   C4A  200   3.342   9.026   5.150
   17DOPC   C1B  201   3.622   8.808   6.050
   17DOPC   D2B  202   3.651   8.724   5.750
   17DOPC   C3B  203   3.605   8.741   5.450
   17DOPC   C4B  204   3.627   8.799   5.150
   18DOPC   NC3  205   2.659   9.782   6.950
   18DOPC   PO4  206   2.707   9.839   6.650
   18DOPC   GL1  207   2.682   9.849   6.350
   18DOPC   GL2  208   2.787   9.666   6.350
   18DOPC   C1A  209   2.661   9.843   6.050
   18DOPC   D2A  210   2.707   9.846   5.750
   18DOPC   C3A  211   2.702   9.872   5.450
   18DOPC   C4A  212   2.618   9.793   5.150
   18DOPC   C1B  213   2.855   9.529   6.050
   18DOPC   D2B  214   2.829   9.465   5.750
   18DOPC   C3B  215   2.840   9.533   5.450
   18DOPC   C4B  216   2.803   9.473   5.150
   19DOPC   NC3  217  12.622   8.759   6.950
   19DOPC   PO4  218  12.640   8.796   6.650
   19DOPC   GL1  219  12.651   8.735   6.350
   19DOPC   GL2  220  12.705   8.919   6.350
   19DOPC   C1A  221  12.660   8.750   6.050
   19DOPC   D2A  222  12.602   8.758   5.750
   19DOPC   C3A  223  12.642   8.759   5.450
   19DOPC   C4A  224  12.620   8.814   5.150
   19DOPC   C1B  225  12.854   8.996   6.050
   19DOPC   D2B  226  12.846   9.006   5.750
   19DOPC   C3B  227  12.852   9.050   5.450
   19DOPC   C4B  228  12.832   9.054   5.150
   20DOPC   NC3  229  12.119   2.689   6.950
   20DOPC   PO4  230  12.095   2.676   6.650
   20DOPC   GL1  231  12.123   2.614   6.350
   20DOPC   GL2  232  11.977   2.737   6.350
   20DOPC   C1A  233  12.117   2.707   6.050
   20DOPC   D2A  234  12.181   2.698   5.750
   20DOPC   C3A  235  12.143   2.669   5.450
   20DOPC   C4A  236  12.110   2.667   5.150
   20DOPC   C1B  237  11.786   2.817   6.050
   20DOPC   D2B  238  11.773   2.786   5.750
   20DOPC   C3B  239  11.818   2.778   5.450
   20DOPC   C4B  240  11.805   2.793   5.150
   21DOPC   NC3  241  16.422   2.634   6.950
   21DOPC   PO4  242  16.449   2.721   6.650
   21DOPC   GL1  243  16.407   2.624   6.350
   21DOPC   GL2  244  16.618   2.711   6.350
   21DOPC   C1A  245  16.399   2.642   6.050
   21DOPC   D2A  246  16.458   2.663   5.750
   21DOPC   C3A  247  16.401   2.624   5.450
   21DOPC   C4A  248  16.467   2.706   5.150
   21DOPC   C1B  249  16.743   2.839   6.050
   21DOPC   D2B  250  16.791   2.791   5.750
   21DOPC   C3B  251  16.729   2.825   5.450
   21DOPC   C4B  252  16.782   2.814   5.150
   22DOPC   NC3  253  10.543   5.091   6.950
   22DOPC   PO4  254  10.607   5.132   6.650
   22DOPC   GL1  255  10.585   5.105   6.350
   22DOPC   GL2  256  10.388   5.086   6.350
   22DOPC   C1A  257  10.633   5.114   6.050
   22DOPC   D2A  258  10.541   5.127   5.750
   22DOPC   C3A  259  10.580   5.180   5.450
   22DOPC   C4A  260  10.612   5.116   5.150
   22DOPC   C1B  261  10.311   4.960   6.050
   22DOPC   D2B  262  10.319   4.912   5.750
   22DOPC   C3B  263  10.298   4.916   5.450
   22DOPC   C4B  264  10.230   5.000   5.150
   23DOPC   NC3  265   0.403   2.902   6.950
   23DOPC   PO4  266   0.427   2.890   6.650
   23DOPC   GL1  267   0.402   2.900   6.350
   23DOPC   GL2  268   0.479   2.787   6.350
   23DOPC   C1A  269   0.461   2.960   6.050
   23DOPC   D2A  270   0.440   2.892   5.750
   23DOPC   C3A  271   0.475   2.890   5.450
   23DOPC   C4A  272   0.435   2.966   5.150
   23DOPC   C1B  273   0.379   2.605   6.050
   23DOPC   D2B  274   0.457   2.542   5.750
   23DOPC   C3B  275   0.460   2.604   5.450
   23DOPC   C4B  276   0.398   2.598   5.150
   24DOPC   NC3  277  12.809   7.180   6.950
   24DOPC   PO4  278  12.849   7.218   6.650
   24DOPC   GL1  279  12.823   7.203   6.350
   24DOPC   GL2  280  12.781   7.368   6.350
   24DOPC   C1A  281  12.798   7.237   6.050
   24DOPC   D2A  282  12.864   7.217   5.750
   24DOPC   C3A  283  12.878   7.219   5.450
   24DOPC   C4A  284  12.885   7.238   5.150
   24DOPC   C1B  285  12.647   7.475   6.050
   24DOPC   D2B  286  12.656   7.475   5.750
   24DOPC   C3B  287  12.655   7.496   5.450
   24DOPC   C4B  288  12.646   7.537   5.150
   25DOPC   NC3  289   5.959   9.709   6.950
   25DOPC   PO4  290   5.987   9.732   6.650
   25DOPC   GL1  291   6.011   9.717   6.350
   25DOPC   GL2  292   5.798   9.705   6.350
   25DOPC   C1A  293   5.974   9.744   6.050
   25DOPC   D2A  294   5.934   9.723   5.750
   25DOPC   C3A  295   5.942   9.777   5.450
   25DOPC   C4A  296   6.008   9.715   5.150
   25DOPC   C1B  297   5.643   9.549   6.050
   25DOPC   D2B  298   5.671   9.577   5.750
   25DOPC   C3B  299   5.627   9.583   5.450
   25DOPC   C4B  300   5.696   9.569   5.150
   26DOPC   NC3  301   4.938   3.333   6.950
   26DOPC   PO4  302   4.963   3.402   6.650
   26DOPC   GL1  303   4.944   3.388   6.350
   26DOPC   GL2  304   5.017   3.488   6.350
   26DOPC   C1A  305   5.003   3.320   6.050
   26DOPC   D2A  306   4.960   3.384   5.750
   26DOPC   C3A  307   4.982   3.396   5.450
   26DOPC   C4A  308   4.965   3.371   5.150
   26DOPC   C1B  309   5.138   3.684   6.050
   26DOPC   D2B  310   5.133   3.689   5.750
   26DOPC   C3B  311   5.105   3.710   5.450
   26DOPC   C4B  312   5.164   3.705   5.150
   27DOPC   NC3  313   1.891   9.473   6.950
   27DOPC   PO4  314   1.932   9.481   6.650
   27DOPC   GL1  315   1.878   9.487   6.350
   27DOPC   GL2  316   1.967   9.644   6.350
   27DOPC   C1A  317   1.896   9.524   6.050
   27DOPC   D2A  318   1.901   9.482   5.750
   27DOPC   C3A  319   1.869   9.491   5.450
   27DOPC   C4A  320   1.901   9.548   5.150
   27DOPC   C1B  321   2.046   9.812   6.050
   27DOPC   D2B  322   2.065   9.827   5.750
   27DOPC   C3B  323   2.080   9.860   5.450
   27DOPC   C4B  324   2.057   9.832   5.150
   28DOPC   NC3  325  11.056   7.314   6.950
   28DOPC   PO4  326  11.050   7.325   6.650
   28DOPC   GL1  327  11.076   7.276   6.350
   28DOPC   GL2  328  11.217   7.312   6.350
   28DOPC   C1A  329  11.001   7.353   6.050
   28DOPC   D2A  330  11.035   7.283   5.750
   28DOPC   C3A  331  11.039   7.334   5.450
   28DOPC   C4A  332  11.075   7.359   5.150
   28DOPC   C1B  333  11.348   7.429   6.050
   28DOPC   D2B  334  11.410   7.372   5.750
   28DOPC   C3B  335  11.355   7.389   5.450
   28DOPC   C4B  336  11.422   7.370   5.150
   29DOPC   NC3  337  12.611   0.398   6.950
   29DOPC   PO4  338  12.584   0.364   6.650
   29DOPC   GL1  339  12.576   0.371   6.350
   29DOPC   GL2  340  12.761   0.391   6.350
   29DOPC   C1A  341  12.551   0.397   6.050
   29DOPC   D2A  342  12.609   0.428   5.750
   29DOPC   C3A  343  12.601   0.381   5.450
   29DOPC   C4A  344  12.610   0.441   5.150
   29DOPC   C1B  345  12.945   0.450   6.050
   29DOPC   D2B  346  12.935   0.468   5.750
   29DOPC   C3B  347  12.941   0.457   5.450
   29DOPC   C4B  348  12.888   0.445   5.150
   30DOPC   NC3  349   1.096   0.272   6.950
   30DOPC   PO4  350   1.028   0.345   6.650
   30DOPC   GL1  351   1.089   0.277   6.350
   30DOPC   GL2  352   1.178   0.443   6.350
   30DOPC   C1A  353   1.124   0.295   6.050
   30DOPC   D2A  354   1.089   0.320   5.750
   30DOPC   C3A  355   1.067   0.262   5.450
   30DOPC   C4A  356   1.111   0.312   5.150
   30DOPC   C1B  357   1.344   0.541   6.050
   30DOPC   D2B  358   1.360   0.529   5.750
   30DOPC   C3B  359   1.309   0.553   5.450
   30DOPC   C4B  360   1.288   0.533   5.150
   31DOPC   NC3  361  18.212   9.475   6.950
   31DOPC   PO4  362  18.202   9.521   6.650
   31DOPC   GL1  363  18.163   9.457   6.350
   31DOPC   GL2  364  18.081   9.621   6.350
   31DOPC   C1A  365  18.145   9.449   6.050
   31DOPC   D2A  366  18.175   9.526   5.750
   31DOPC   C3A  367  18.201   9.469   5.450
   31DOPC   C4A  368  18.149   9.520   5.150
   31DOPC   C1B  369  18.021   9.823   6.050
   31DOPC   D2B  370  18.045   9.793   5.750
   31DOPC   C3B  371  18.055   9.876   5.450
   31DOPC   C4B  372  18.036   9.871   5.150
   32DOPC   NC3  373  18.167   2.609   6.950
   32DOPC   PO4  374  18.183   2.536   6.650
   32DOPC   GL1  375  18.175   2.587   6.350
   32DOPC   GL2  376  18.116   2.763   6.350
   32DOPC   C1A  377  18.134   2.599   6.050
   32DOPC   D2A  378  18.182   2.548   5.750
   32DOPC   C3A  379  18.148   2.579   5.450
   32DOPC   C4A  380  18.110   2.566   5.150
   32DOPC   C1B  381  18.117   2.893   6.050
   32DOPC   D2B  382  18.140   2.954   5.750
   32DOPC   C3B  383  18.061   2.922   5.450
   32DOPC   C4B  384  18.070   2.915   5.150
   33DOPC   NC3  385  10.568   1.257   6.950
   33DOPC   PO4  386  10.571   1.244   6.650
   33DOPC   GL1  387  10.604   1.257   6.350
   33DOPC   GL2  388  10.466   1.212   6.350
   33DOPC   C1A  389  10.640   1.278   6.050
   33DOPC   D2A  390  10.648   1.271   5.750
   33DOPC   C3A  391  10.642   1.265   5.450
   33DOPC   C4A  392  10.587   1.262   5.150
   33DOPC   C1B  393  10.242   1.226   6.050
   33DOPC   D2B  394  10.290   1.139   5.750
   33DOPC   C3B  395  10.211   1.174   5.450
   33DOPC   C4B  396  10.307   1.174   5.150
   34DOPC   NC3  397  17.914   4.246   6.950
   34DOPC   PO4  398  17.968   4.249   6.650
   34DOPC   GL1  399  17.924   4.184   6.350
   34DOPC   GL2  400  18.096   4.257   6.350
   34DOPC   C1A  401  17.909   4.211   6.050
   34DOPC   D2A  402  17.978   4.248   5.750
   34DOPC   C3A  403  17.947   4.210   5.450
   34DOPC   C4A  404  17.945   4.228   5.150
   34DOPC   C1B  405  18.252   4.331   6.050
   34DOPC   D2B  406  18.279   4.294   5.750
   34DOPC   C3B  407  18.251   4.357   5.450
   34DOPC   C4B  408  18.279   4.375   5.150
   35DOPC   NC3  409   4.280   6.402   6.950
   35DOPC   PO4  410   4.313   6.421   6.650
   35DOPC   GL1  411   4.312   6.414   6.350
   35DOPC   GL2  412   4.267   6.562   6.350
   35DOPC   C1A  413   4.351   6.393   6.050
   35DOPC   D2A  414   4.372   6.374   5.750
   35DOPC   C3A  415   4.331   6.403   5.450
   35DOPC   C4A  416   4.371   6.441   5.150
   35DOPC   C1B  417   4.218   6.787   6.050
   35DOPC   D2B  418   4.220   6.754   5.750
   35DOPC   C3B  419   4.268   6.762   5.450
   35DOPC   C4B  420   4.235   6.742   5.150
   36DOPC   NC3  421   5.204   1.857   6.950
   36DOPC   PO4  422   5.168   1.877   6.650
   36DOPC   GL1  423   5.181   1.827   6.350
   36DOPC   GL2  424   5.004   1.943   6.350
   36DOPC   C1A  425   5.215   1.876   6.050
   36DOPC   D2A  426   5.162   1.842   5.750
   36DOPC   C3A  427   5.141   1.891   5.450
   36DOPC   C4A  428   5.215   1.831   5.150
   36DOPC   C1B  429   4.888   2.107   6.050
   36DOPC   D2B  430   4.881   2.128   5.750
   36DOPC   C3B  431   4.884   2.132   5.450
   36DOPC   C4B  432   4.931   2.056   5.150
   37DOPC   NC3  433   4.114   9.523   6.950
   37DOPC   PO4  434   4.160   9.525   6.650
   37DOPC   GL1  435   4.143   9.501   6.350
   37DOPC   GL2  436   4.243   9.664   6.350
   37DOPC   C1A  437   4.189   9.510   6.050
   37DOPC   D2A  438   4.170   9.574   5.750
   37DOPC   C3A  439   4.156   9.501   5.450
   37DOPC   C4A  440   4.120   9.545   5.150
   37DOPC   C1B  441   4.375   9.785   6.050
   37DOPC   D2B  442   4.393   9.835   5.750
   37DOPC   C3B  443   4.431   9.772   5.450
   37DOPC   C4B  444   4.395   9.814   5.150
   38DOPC   NC3  445   4.981   6.485   6.950
   38DOPC   PO4  446   4.907   6.441   6.650
   38DOPC   GL1  447   4.967   6.488   6.350
   38DOPC   GL2  448   5.021   6.569   6.350
   38DOPC   C1A  449   4.962   6.426   6.050
   38DOPC   D2A  450   4.977   6.456   5.750
   38DOPC   C3A  451   4.942   6.401   5.450
   38DOPC   C4A  452   4.918   6.401   5.150
   38DOPC   C1B  453   5.135   6.775   6.050
   38DOPC   D2B  454   5.169   6.729   5.750
   38DOPC   C3B  455   5.190   6.726   5.450
   38DOPC   C4B  456   5.183   6.766   5.150
   39DOPC   NC3  457   2.116   0.520   6.950
   39DOPC   PO4  458   2.144   0.467   6.650
   39DOPC   GL1  459   2.125   0.556   6.350
   39DOPC   GL2  460   1.988   0.434   6.350
   39DOPC   C1A  461   2.089   0.519   6.050
   39DOPC   D2A  462   2.164   0.466   5.750
   39DOPC   C3A  463   2.175   0.460   5.450
   39DOPC   C4A  464   2.158   0.538   5.150
   39DOPC   C1B  465   1.767   0.368   6.050
   39DOPC   D2B  466   1.851   0.356   5.750
   39DOPC   C3B  467   1.850   0.372   5.450
   39DOPC   C4B  468   1.793   0.377   5.150
   40DOPC   NC3  469   8.719   9.572   6.950
   40DOPC   PO4  470   8.712   9.553   6.650
   40DOPC   GL1  471   8.787   9.558   6.350
   40DOPC   GL2  472   8.855   9.653   6.350
   40DOPC   C1A  473   8.722   9.629   6.050
   40DOPC   D2A  474   8.746   9.608   5.750
   40DOPC   C3A  475   8.780   9.542   5.450
   40DOPC   C4A  476   8.758   9.611   5.150
   40DOPC   C1B  477   9.068   9.732   6.050
   40DOPC   D2B  478   9.095   9.710   5.750
   40DOPC   C3B  479   9.080   9.760   5.450
   40DOPC   C4B  480   9.022   9.784   5.150
   41DOPC   NC3  481   8.970   1.364   6.950
   41DOPC   PO4  482   8.949   1.374   6.650
   41DOPC   GL1  483   8.996   1.410   6.350
   41DOPC   GL2  484   8.892   1.201   6.350
   41DOPC   C1A  485   8.969   1.384   6.050
   41DOPC   D2A  486   8.931   1.362   5.750
   41DOPC   C3A  487   8.954   1.378   5.450
   41DOPC   C4A  488   8.980   1.388   5.150
   41DOPC   C1B  489   8.782   1.020   6.050
   41DOPC   D2B  490   8.792   1.031   5.750
   41DOPC   C3B  491   8.808   1.034   5.450
   41DOPC   C4B  492   8.819   1.036   5.150
   42DOPC   NC3  493  13.713   1.125   6.950
   42DOPC   PO4  494  13.663   1.171   6.650
   42DOPC   GL1  495  13.718   1.178   6.350
   42DOPC   GL2  496  13.538   1.155   6.350
   42DOPC   C1A  497  13.633   1.158   6.050
   42DOPC   D2A  498  13.641   1.089   5.750
   42DOPC   C3A  499  13.643   1.083   5.450
   42DOPC   C4A  500  13.716   1.111   5.150
   42DOPC   C1B  501  13.364   1.321   6.050
   42DOPC   D2B  502  13.399   1.277   5.750
   42DOPC   C3B  503  13.318   1.314   5.450
   42DOPC   C4B  504  13.372   1.294   5.150
   43DOPC   NC3  505  18.756   6.545   6.950
   43DOPC   PO4  506  18.703   6.541   6.650
   43DOPC   GL1  507  18.752   6.527   6.350
   43DOPC   GL2  508  18.852   6.591   6.350
   43DOPC   C1A  509  18.724   6.554   6.050
   43DOPC   D2A  510  18.710   6.542   5.750
   43DOPC   C3A  511  18.742   6.618   5.450
   43DOPC   C4A  512  18.716   6.598   5.150
   43DOPC   C1B  513  19.100   6.642   6.050
   43DOPC   D2B  514  19.122   6.643   5.750
   43DOPC   C3B  515  19.121   6.567   5.450
   43DOPC   C4B  516  19.089   6.572   5.150
   44DOPC   NC3  517  16.722   9.023   6.950
   44DOPC   PO4  518  16.675   9.009   6.650
   44DOPC   GL1  519  16.683   9.011   6.350
   44DOPC   GL2  520  16.625   8.919   6.350
   44DOPC   C1A  521  16.637   9.099   6.050
   44DOPC   D2A  522  16.630   9.012   5.750
   44DOPC   C3A  523  16.698   9.003   5.450
   44DOPC   C4A  524  16.655   9.018   5.150
   44DOPC   C1B  525  16.486   8.704   6.050
   44DOPC   D2B  526  16.458   8.728   5.750
   44DOPC   C3B  527  16.530   8.713   5.450
   44DOPC   C4B  528  16.466   8.767   5.150
   45DOPC   NC3  529   1.829   3.338   6.950
   45DOPC   PO4  530   1.837   3.336   6.650
   45DOPC   GL1  531   1.840   3.376   6.350
   45DOPC   GL2  532   1.973   3.526   6.350
   45DOPC   C1A  533   1.829   3.321   6.050
   45DOPC   D2A  534   1.873   3.377   5.750
   45DOPC   C3A  535   1.847   3.378   5.450
   45DOPC   C4A  536   1.834   3.412   5.150
   45DOPC   C1B  537   2.059   3.658   6.050
   45DOPC   D2B  538   2.058   3.614   5.750
   45DOPC   C3B  539   2.125   3.661   5.450
   45DOPC   C4B  540   2.067   3.661   5.150
   46DOPC   NC3  541  14.331   2.522   6.950
   46DOPC   PO4  542  14.313   2.546   6.650
   46DOPC   GL1  543  14.331   2.592   6.350
   46DOPC   GL2  544  14.288   2.749   6.350
   46DOPC   C1A  545  14.321   2.550   6.050
   46DOPC   D2A  546  14.332   2.552   5.750
   46DOPC   C3A  547  14.322   2.618   5.450
   46DOPC   C4A  548  14.342   2.594   5.150
   46DOPC   C1B  549  14.282   2.935   6.050
   46DOPC   D2B  550  14.210   2.962   5.750
   46DOPC   C3B  551  14.224   2.942   5.450
   46DOPC   C4B  552  14.270   2.905   5.150
   47DOPC   NC3  553  19.807   2.769   6.950
   47DOPC   PO4  554  19.798   2.730   6.650
   47DOPC   GL1  555  19.891   2.777   6.350
   47DOPC   GL2  556  19.710   2.785   6.350
   47DOPC   C1A  557  19.793   2.818   6.050
   47DOPC   D2A  558  19.819   2.727   5.750
   47DOPC   C3A  559  19.795   2.788   5.450
   47DOPC   C4A  560  19.822   2.732   5.150
   47DOPC   C1B  561  19.452   2.672   6.050
   47DOPC   D2B  562  19.490   2.688   5.750
   47DOPC   C3B  563  19.448   2.760   5.450
   47DOPC   C4B  564  19.453   2.752   5.150
   48DOPC   NC3  565   8.011   2.878   6.950
   48DOPC   PO4  566   8.013   2.850   6.650
   48DOPC   GL1  567   8.003   2.890   6.350
   48DOPC   GL2  568   8.162   2.776   6.350
   48DOPC   C1A  569   8.083   2.894   6.050
   48DOPC   D2A  570   8.072   2.924   5.750
   48DOPC   C3A  571   8.076   2.938   5.450
   48DOPC   C4A  572   7.998   2.856   5.150
   48DOPC   C1B  573   8.265   2.550   6.050
   48DOPC   D2B  574   8.264   2.616   5.750
   48DOPC   C3B  575   8.224   2.556   5.450
   48DOPC   C4B  576   8.202   2.584   5.150
   49DOPC   NC3  577   8.244   5.183   6.950
   49DOPC   PO4  578   8.292   5.166   6.650
   49DOPC   GL1  579   8.270   5.186   6.350
   49DOPC   GL2  580   8.131   5.041   6.350
   49DOPC   C1A  581   8.235   5.173   6.050
   49DOPC   D2A  582   8.267   5.187   5.750
   49DOPC   C3A  583   8.224   5.145   5.450
   49DOPC   C4A  584   8.312   5.144   5.150
   49DOPC   C1B  585   7.944   4.935   6.050
   49DOPC   D2B  586   7.970   4.905   5.750
   49DOPC   C3B  587   7.946   4.963   5.450
   49DOPC   C4B  588   8.033   4.965   5.150
   50DOPC   NC3  589  10.401   4.098   6.950
   50DOPC   PO4  590  10.426   4.143   6.650
   50DOPC   GL1  591  10.421   4.131   6.350
   50DOPC   GL2  592  10.430   4.302   6.350
   50DOPC   C1A  593  10.387   4.115   6.050
   50DOPC   D2A  594  10.451   4.111   5.750
   50DOPC   C3A  595  10.455   4.117   5.450
   50DOPC   C4A  596  10.380   4.054   5.150
   50DOPC   C1B  597  10.499   4.463   6.050
   50DOPC   D2B  598  10.500   4.487   5.750
   50DOPC   C3B  599  10.442   4.442   5.450
   50DOPC   C4B  600  10.448   4.478   5.150
   51DOPC   NC3  601   5.961   5.742   6.950
   51DOPC   PO4  602   5.998   5.754   6.650
   51DOPC   GL1  603   5.970   5.758   6.350
   51DOPC   GL2  604   5.862   5.850   6.350
   51DOPC   C1A  605   5.990   5.723   6.050
   51DOPC   D2A  606   5.954   5.703   5.750
   51DOPC   C3A  607   5.952   5.736   5.450
   51DOPC   C4A  608   5.974   5.762   5.150
   51DOPC   C1B  609   5.684   5.885   6.050
   51DOPC   D2B  610   5.692   5.942   5.750
   51DOPC   C3B  611   5.685   5.971   5.450
   51DOPC   C4B  612   5.714   5.897   5.150
   52DOPC   NC3  613   1.060   2.906   6.950
   52DOPC   PO4  614   1.065   2.917   6.650
   52DOPC   GL1  615   1.131   2.917   6.350
   52DOPC   GL2  616   1.171   2.734   6.350
   52DOPC   C1A  617   1.067   2.872   6.050
   52DOPC   D2A  618   1.131   2.855   5.750
   52DOPC   C3A  619   1.072   2.898   5.450
   52DOPC   C4A  620   1.110   2.851   5.150
   52DOPC   C1B  621   1.358   2.578   6.050
   52DOPC   D2B  622   1.276   2.579   5.750
   52DOPC   C3B  623   1.343   2.632   5.450
   52DOPC   C4B  624   1.325   2.602   5.150
   53DOPC   NC3  625  11.839   1.112   6.950
   53DOPC   PO4  626  11.821   1.127   6.650
   53DOPC   GL1  627  11.865   1.151   6.350
   53DOPC   GL2  628  11.989   1.205   6.350
   53DOPC   C1A  629  11.809   1.102   6.050
   53DOPC   D2A  630  11.813   1.159   5.750
   53DOPC   C3A  631  11.836   1.160   5.450
   53DOPC   C4A  632  11.800   1.108   5.150
   53DOPC   C1B  633  12.148   1.325   6.050
   53DOPC   D2B  634  12.112   1.316   5.750
   53DOPC   C3B  635  12.177   1.256   5.450
   53DOPC   C4B  636  12.165   1.248   5.150
   54DOPC   NC3  637  17.941   1.151   6.950
   54DOPC   PO4  638  17.979   1.165   6.650
   54DOPC   GL1  639  17.941   1.184   6.350
   54DOPC   GL2  640  18.176   1.181   6.350
   54DOPC   C1A  641  17.981   1.109   6.050
   54DOPC   D2A  642  17.981   1.127   5.750
   54DOPC   C3A  643  18.000   1.184   5.450
   54DOPC   C4A  644  17.933   1.088   5.150
   54DOPC   C1B  645  18.255   1.222   6.050
   54DOPC   D2B  646  18.264   1.240   5.750
   54DOPC   C3B  647  18.258   1.319   5.450
   54DOPC   C4B  648  18.270   1.322   5.150
   55DOPC   NC3  649   4.898   0.412   6.950
   55DOPC   PO4  650   4.899   0.406   6.650
   55DOPC   GL1  651   4.851   0.368   6.350
   55DOPC   GL2  652   5.013   0.461   6.350
   55DOPC   C1A  653   4.922   0.363   6.050
   55DOPC   D2A  654   4.861   0.387   5.750
   55DOPC   C3A  655   4.845   0.392   5.450
   55DOPC   C4A  656   4.877   0.411   5.150
   55DOPC   C1B  657   5.214   0.494   6.050
   55DOPC   D2B  658   5.237   0.502   5.750
   55DOPC   C3B  659   5.239   0.522   5.450
   55DOPC   C4B  660   5.185   0.461   5.150
   56DOPC   NC3  661  15.231   8.228   6.950
   56DOPC   PO4  662  15.205   8.240   6.650
   56DOPC   GL1  663  15.149   8.206   6.350
   56DOPC   GL2  664  15.011   8.134   6.350
   56DOPC   C1A  665  15.176   8.228   6.050
   56DOPC   D2A  666  15.204   8.244   5.750
   56DOPC   C3A  667  15.224   8.254   5.450
   56DOPC   C4A  668  15.239   8.254   5.150
   56DOPC   C1B  669  14.914   8.013   6.050
   56DOPC   D2B  670  14.893   8.031   5.750
   56DOPC   C3B  671  14.921   7.973   5.450
   56DOPC   C4B  672  14.932   7.972   5.150
   57DOPC   NC3  673  17.427   2.107   6.950
   57DOPC   PO4  674  17.467   2.165   6.650
   57DOPC   GL1  675  17.412   2.079   6.350
   57DOPC   GL2  676  17.377   1.953   6.350
   57DOPC   C1A  677  17.408   2.086   6.050
   57DOPC   D2A  678  17.457   2.149   5.750
   57DOPC   C3A  679  17.402   2.119   5.450
   57DOPC   C4A  680  17.402   2.117   5.150
   57DOPC   C1B  681  17.302   1.829   6.050
   57DOPC   D2B  682  17.272   1.813   5.750
   57DOPC   C3B  683  17.301   1.860   5.450
   57DOPC   C4B  684  17.256   1.867   5.150
   58DOPC   NC3  685  19.108   3.607   6.950
   58DOPC   PO4  686  19.051   3.578   6.650
   58DOPC   GL1  687  19.071   3.557   6.350
   58DOPC   GL2  688  18.945   3.492   6.350
   58DOPC   C1A  689  19.073   3.597   6.050
   58DOPC   D2A  690  19.028   3.564   5.750
   58DOPC   C3A  691  19.059   3.528   5.450
   58DOPC   C4A  692  19.035   3.540   5.150
   58DOPC   C1B  693  18.770   3.490   6.050
   58DOPC   D2B  694  18.751   3.484   5.750
   58DOPC   C3B  695  18.769   3.421   5.450
   58DOPC   C4B  696  18.733   3.410   5.150
   59DOPC   NC3  697  18.772   5.902   6.950
   59DOPC   PO4  698  18.704   5.909   6.650
   59DOPC   GL1  699  18.736   5.843   6.350
   59DOPC   GL2  700  18.941   5.788   6.350
   59DOPC   C1A  701  18.771   5.905   6.050
   59DOPC   D2A  702  18.733   5.849   5.750
   59DOPC   C3A  703  18.739   5.902   5.450
   59DOPC   C4A  704  18.678   5.865   5.150
   59DOPC   C1B  705  19.022   5.755   6.050
   59DOPC   D2B  706  19.042   5.747   5.750
   59DOPC   C3B  707  19.043   5.825   5.450
   59DOPC   C4B  708  19.031   5.755   5.150
   60DOPC   NC3  709  15.186   2.096   6.950
   60DOPC   PO4  710  15.161   2.009   6.650
   60DOPC   GL1  711  15.170   2.026   6.350
   60DOPC   GL2  712  15.084   2.003   6.350
   60DOPC   C1A  713  15.237   2.010   6.050
   60DOPC   D2A  714  15.242   2.069   5.750
   60DOPC   C3A  715  15.169   2.086   5.450
   60DOPC   C4A  716  15.221   2.059   5.150
   60DOPC   C1B  717  14.887   1.924   6.050
   60DOPC   D2B  718  14.856   1.889   5.750
   60DOPC   C3B  719  14.866   1.902   5.450
   60DOPC   C4B  720  14.908   1.918   5.150
   61DOPC   NC3  721   8.758   4.215   6.950
   61DOPC   PO4  722   8.710   4.245   6.650
   61DOPC   GL1  723   8.755   4.228   6.350
   61DOPC   GL2  724   8.854   4.316   6.350
   61DOPC   C1A  725   8.734   4.223   6.050
   61DOPC   D2A  726   8.689   4.262   5.750
   61DOPC   C3A  727   8.672   4.226   5.450
   61DOPC   C4A  728   8.740   4.269   5.150
   61DOPC   C1B  729   9.032   4.329   6.050
   61DOPC   D2B  730   9.095   4.318   5.750
   61DOPC   C3B  731   9.104   4.363   5.450
   61DOPC   C4B  732   9.092   4.284   5.150
   62DOPC   NC3  733  15.263   7.421   6.950
   62DOPC   PO4  734  15.239   7.472   6.650
   62DOPC   GL1  735  15.232   7.436   6.350
   62DOPC   GL2  736  15.019   7.340   6.350
   62DOPC   C1A  737  15.192   7.478   6.050
   62DOPC   D2A  738  15.201   7.466   5.750
   62DOPC   C3A  739  15.263   7.395   5.450
   62DOPC   C4A  740  15.222   7.439   5.150
   62DOPC   C1B  741  14.874   7.241   6.050
   62DOPC   D2B  742  14.901   7.312   5.750
   62DOPC   C3B  743  14.875   7.271   5.450
   62DOPC   C4B  744  14.862   7.293   5.150
   63DOPC   NC3  745   3.650   7.312   6.950
   63DOPC   PO4  746   3.701   7.249   6.650
   63DOPC   GL1  747   3.701   7.255   6.350
   63DOPC   GL2  748   3.551   7.349   6.350
   63DOPC   C1A  749   3.707   7.277   6.050
   63DOPC   D2A  750   3.639   7.244   5.750
   63DOPC   C3A  751   3.644   7.304   5.450
   63DOPC   C4A  752   3.644   7.233   5.150
   63DOPC   C1B  753   3.393   7.456   6.050
   63DOPC   D2B  754   3.323   7.479   5.750
   63DOPC   C3B  755   3.354   7.486   5.450
   63DOPC   C4B  756   3.380   7.473   5.150
   64DOPC   NC3  757  11.073   8.285   6.950
   64DOPC   PO4  758  11.098   8.222   6.650
   64DOPC   GL1  759  11.038   8.198   6.350
   64DOPC   GL2  760  11.209   8.130   6.350
   64DOPC   C1A  761  11.059   8.210   6.050
   64DOPC   D2A  762  11.058   8.287   5.750
   64DOPC   C3A  763  11.048   8.269   5.450
   64DOPC   C4A  764  11.021   8.285   5.150
   64DOPC   C1B  765  11.292   8.055   6.050
   64DOPC   D2B  766  11.306   7.979   5.750
   64DOPC   C3B  767  11.368   7.975   5.450
   64DOPC   C4B  768  11.323   8.042   5.150
   65DOPC   NC3  769   1.917   1.359   6.950
   65DOPC   PO4  770   1.984   1.363   6.650
   65DOPC   GL1  771   1.954   1.430   6.350
   65DOPC   GL2  772   1.943   1.166   6.350
   65DOPC   C1A  773   1.917   1.336   6.050
   65DOPC   D2A  774   1.934   1.346   5.750
   65DOPC   C3A  775   1.998   1.351   5.450
   65DOPC   C4A  776   1.919   1.344   5.150
   65DOPC   C1B  777   1.954   1.040   6.050
   65DOPC   D2B  778   1.977   0.979   5.750
   65DOPC   C3B  779   1.998   0.979   5.450
   65DOPC   C4B  780   1.957   1.042   5.150
   66DOPC   NC3  781   8.189   3.644   6.950
   66DOPC   PO4  782   8.137   3.666   6.650
   66DOPC   GL1  783   8.149   3.672   6.350
   66DOPC   GL2  784   8.105   3.555   6.350
   66DOPC   C1A  785   8.194   3.660   6.050
   66DOPC   D2A  786   8.183   3.672   5.750
   66DOPC   C3A  787   8.197   3.638   5.450
   66DOPC   C4A  788   8.202   3.635   5.150
   66DOPC   C1B  789   8.042   3.311   6.050
   66DOPC   D2B  790   8.099   3.362   5.750
   66DOPC   C3B  791   8.107   3.343   5.450
   66DOPC   C4B  792   8.047   3.321   5.150
   67DOPC   NC3  793  19.814   8.049   6.950
   67DOPC   PO4  794  19.795   7.998   6.650
   67DOPC   GL1  795  19.776   8.064   6.350
   67DOPC   GL2  796  19.667   8.135   6.350
   67DOPC   C1A  797  19.780   8.028   6.050
   67DOPC   D2A  798  19.813   8.041   5.750
   67DOPC   C3A  799  19.786   8.042   5.450
   67DOPC   C4A  800  19.795   8.022   5.150
   67DOPC   C1B  801  19.480   8.207   6.050
   67DOPC   D2B  802  19.549   8.204   5.750
   67DOPC   C3B  803  19.548   8.184   5.450
   67DOPC   C4B  804  19.477   8.168   5.150
   68DOPC   NC3  805   0.281   6.484   6.950
   68DOPC   PO4  806   0.302   6.430   6.650
   68DOPC   GL1  807   0.356   6.417   6.350
   68DOPC   GL2  808   0.444   6.597   6.350
   68DOPC   C1A  809   0.371   6.432   6.050
   68DOPC   D2A  810   0.342   6.438   5.750
   68DOPC   C3A  811   0.299   6.413   5.450
   68DOPC   C4A  812   0.291   6.428   5.150
   68DOPC   C1B  813   0.590   6.688   6.050
   68DOPC   D2B  814   0.558   6.684   5.750
   68DOPC   C3B  815   0.579   6.690   5.450
   68DOPC   C4B  816   0.571   6.716   5.150
   69DOPC   NC3  817  14.897   5.945   6.950
   69DOPC   PO4  818  14.932   5.937   6.650
   69DOPC   GL1  819  14.891   5.885   6.350
   69DOPC   GL2  820  15.012   5.869   6.350
   69DOPC   C1A  821  14.902   5.910   6.050
   69DOPC   D2A  822  14.949   5.950   5.750
   69DOPC   C3A  823  14.900   5.883   5.450
   69DOPC   C4A  824  14.916   5.939   5.150
   69DOPC   C1B  825  15.187   5.753   6.050
   69DOPC   D2B  826  15.151   5.763   5.750
   69DOPC   C3B  827  15.174   5.756   5.450
   69DOPC   C4B  828  15.237   5.694   5.150
   70DOPC   NC3  829   2.100   2.911   6.950
   70DOPC   PO4  830   2.073   2.929   6.650
   70DOPC   GL1  831   2.091   2.922   6.350
   70DOPC   GL2  832   1.999   2.739   6.350
   70DOPC   C1A  833   2.070   2.853   6.050
   70DOPC   D2A  834   2.066   2.854   5.750
   70DOPC   C3A  835   2.043   2.931   5.450
   70DOPC   C4A  836   2.071   2.852   5.150
   70DOPC   C1B  837   1.931   2.594   6.050
   70DOPC   D2B  838   1.882   2.635   5.750
   70DOPC   C3B  839   1.875   2.586   5.450
   70DOPC   C4B  840   1.877   2.617   5.150
   71DOPC   NC3  841  12.609   9.750   6.950
   71DOPC   PO4  842  12.652   9.800   6.650
   71DOPC   GL1  843  12.591   9.754   6.350
   71DOPC   GL2  844  12.766   9.714   6.350
   71DOPC   C1A  845  12.632   9.748   6.050
   71DOPC   D2A  846  12.651   9.757   5.750
   71DOPC   C3A  847  12.663   9.817   5.450
   71DOPC   C4A  848  12.612   9.788   5.150
   71DOPC   C1B  849  12.853   9.545   6.050
   71DOPC   D2B  850  12.829   9.556   5.750
   71DOPC   C3B  851  12.873   9.585   5.450
   71DOPC   C4B  852  12.821   9.518   5.150
   72DOPC   NC3  853  16.779   3.504   6.950
   72DOPC   PO4  854  16.802   3.434   6.650
   72DOPC   GL1  855  16.790   3.512   6.350
   72DOPC   GL2  856  16.558   3.507   6.350
   72DOPC   C1A  857  16.767   3.447   6.050
   72DOPC   D2A  858  16.784   3.461   5.750
   72DOPC   C3A  859  16.774   3.436   5.450
   72DOPC   C4A  860  16.742   3.444   5.150
   72DOPC   C1B  861  16.448   3.554   6.050
   72DOPC   D2B  862  16.391   3.528   5.750
   72DOPC   C3B  863  16.446   3.579   5.450
   72DOPC   C4B  864  16.448   3.575   5.150
   73DOPC   NC3  865   4.195   5.683   6.950
   73DOPC   PO4  866   4.175   5.637   6.650
   73DOPC   GL1  867   4.179   5.652   6.350
   73DOPC   GL2  868   4.324   5.791   6.350
   73DOPC   C1A  869   4.167   5.626   6.050
   73DOPC   D2A  870   4.212   5.721   5.750
   73DOPC   C3A  871   4.187   5.673   5.450
   73DOPC   C4A  872   4.138   5.665   5.150
   73DOPC   C1B  873   4.400   6.007   6.050
   73DOPC   D2B  874   4.399   5.948   5.750
   73DOPC   C3B  875   4.344   5.958   5.450
   73DOPC   C4B  876   4.339   5.945   5.150
   74DOPC   NC3  877   5.152   7.472   6.950
   74DOPC   PO4  878   5.238   7.501   6.650
   74DOPC   GL1  879   5.220   7.447   6.350
   74DOPC   GL2  880   5.081   7.408   6.350
   74DOPC   C1A  881   5.160   7.461   6.050
   74DOPC   D2A  882   5.245   7.471   5.750
   74DOPC   C3A  883   5.246   7.498   5.450
   74DOPC   C4A  884   5.222   7.421   5.150
   74DOPC   C1B  885   4.920   7.274   6.050
   74DOPC   D2B  886   4.874   7.217   5.750
   74DOPC   C3B  887   4.882   7.281   5.450
   74DOPC   C4B  888   4.925   7.219   5.150
   75DOPC   NC3  889   2.665   6.424   6.950
   75DOPC   PO4  890   2.708   6.366   6.650
   75DOPC   GL1  891   2.694   6.416   6.350
   75DOPC   GL2  892   2.711   6.541   6.350
   75DOPC   C1A  893   2.712   6.380   6.050
   75DOPC   D2A  894   2.746   6.425   5.750
   75DOPC   C3A  895   2.698   6.440   5.450
   75DOPC   C4A  896   2.710   6.415   5.150
   75DOPC   C1B  897   2.793   6.758   6.050
   75DOPC   D2B  898   2.785   6.808   5.750
   75DOPC   C3B  899   2.728   6.742   5.450
   75DOPC   C4B  900   2.747   6.760   5.150
   76DOPC   NC3  901   8.070   1.393   6.950
   76DOPC   PO4  902   8.138   1.365   6.650
   76DOPC   GL1  903   8.150   1.344   6.350
   76DOPC   GL2  904   8.127   1.242   6.350
   76DOPC   C1A  905   8.058   1.411   6.050
   76DOPC   D2A  906   8.097   1.395   5.750
   76DOPC   C3A  907   8.052   1.368   5.450
   76DOPC   C4A  908   8.127   1.384   5.150
   76DOPC   C1B  909   8.183   1.024   6.050
   76DOPC   D2B  910   8.167   1.030   5.750
   76DOPC   C3B  911   8.117   1.056   5.450
   76DOPC   C4B  912   8.194   1.023   5.150
   77DOPC   NC3  913   1.976   6.385   6.950
   77DOPC   PO4  914   1.918   6.446   6.650
   77DOPC   GL1  915   1.966   6.382   6.350
   77DOPC   GL2  916   1.925   6.573   6.350
   77DOPC   C1A  917   1.975   6.388   6.050
   77DOPC   D2A  918   1.978   6.459   5.750
   77DOPC   C3A  919   1.992   6.371   5.450
   77DOPC   C4A  920   1.923   6.382   5.150
   77DOPC   C1B  921   1.972   6.793   6.050
   77DOPC   D2B  922   1.971   6.787   5.750
   77DOPC   C3B  923   1.969   6.805   5.450
   77DOPC   C4B  924   2.021   6.721   5.150
   78DOPC   NC3  925   8.141   6.435   6.950
   78DOPC   PO4  926   8.218   6.383   6.650
   78DOPC   GL1  927   8.209   6.452   6.350
   78DOPC   GL2  928   8.134   6.580   6.350
   78DOPC   C1A  929   8.159   6.369   6.050
   78DOPC   D2A  930   8.155   6.405   5.750
   78DOPC   C3A  931   8.161   6.402   5.450
   78DOPC   C4A  932   8.134   6.432   5.150
   78DOPC   C1B  933   8.065   6.761   6.050
   78DOPC   D2B  934   8.085   6.762   5.750
   78DOPC   C3B  935   8.111   6.768   5.450
   78DOPC   C4B  936   8.089   6.742   5.150
   79DOPC   NC3  937  10.538   9.539   6.950
   79DOPC   PO4  938  10.610   9.592   6.650
   79DOPC   GL1  939  10.580   9.597   6.350
   79DOPC   GL2  940  10.479   9.667   6.350
   79DOPC   C1A  941  10.595   9.570   6.050
   79DOPC   D2A  942  10.524   9.520   5.750
   79DOPC   C3A  943  10.528   9.566   5.450
   79DOPC   C4A  944  10.606   9.585   5.150
   79DOPC   C1B  945  10.303   9.767   6.050
   79DOPC   D2B  946  10.269   9.777   5.750
   79DOPC   C3B  947  10.339   9.791   5.450
   79DOPC   C4B  948  10.263   9.774   5.150
   80DOPC   NC3  949   4.156   1.278   6.950
   80DOPC   PO4  950   4.125   1.293   6.650
   80DOPC   GL1  951   4.146   1.274   6.350
   80DOPC   GL2  952   4.287   1.217   6.350
   80DOPC   C1A  953   4.070   1.315   6.050
   80DOPC   D2A  954   4.106   1.315   5.750
   80DOPC   C3A  955   4.149   1.280   5.450
   80DOPC   C4A  956   4.144   1.223   5.150
   80DOPC   C1B  957   4.422   1.127   6.050
   80DOPC   D2B  958   4.455   1.136   5.750
   80DOPC   C3B  959   4.405   1.147   5.450
   80DOPC   C4B  960   4.403   1.093   5.150
   81DOPC   NC3  961   9.636   5.179   6.950
   81DOPC   PO4  962   9.702   5.190   6.650
   81DOPC   GL1  963   9.695   5.251   6.350
   81DOPC   GL2  964   9.629   5.036   6.350
   81DOPC   C1A  965   9.664   5.220   6.050
   81DOPC   D2A  966   9.670   5.251   5.750
   81DOPC   C3A  967   9.684   5.243   5.450
   81DOPC   C4A  968   9.665   5.258   5.150
   81DOPC   C1B  969   9.673   4.898   6.050
   81DOPC   D2B  970   9.659   4.914   5.750
   81DOPC   C3B  971   9.679   4.920   5.450
   81DOPC   C4B  972   9.689   4.851   5.150
   82DOPC   NC3  973  12.617   1.937   6.950
   82DOPC   PO4  974  12.617   1.910   6.650
   82DOPC   GL1  975  12.547   1.941   6.350
   82DOPC   GL2  976  12.791   1.965   6.350
   82DOPC   C1A  977  12.604   1.940   6.050
   82DOPC   D2A  978  12.583   1.946   5.750
   82DOPC   C3A  979  12.546   1.947   5.450
   82DOPC   C4A  980  12.530   1.929   5.150
   82DOPC   C1B  981  12.872   2.053   6.050
   82DOPC   D2B  982  12.936   2.078   5.750
   82DOPC   C3B  983  12.948   2.072   5.450
   82DOPC   C4B  984  12.918   2.001   5.150
   83DOPC   NC3  985   6.454   2.926   6.950
   83DOPC   PO4  986   6.422   2.836   6.650
   83DOPC   GL1  987   6.451   2.866   6.350
   83DOPC   GL2  988   6.603   2.745   6.350
   83DOPC   C1A  989   6.470   2.884   6.050
   83DOPC   D2A  990   6.519   2.834   5.750
   83DOPC   C3A  991   6.514   2.900   5.450
   83DOPC   C4A  992   6.512   2.878   5.150
   83DOPC   C1B  993   6.708   2.648   6.050
   83DOPC   D2B  994   6.682   2.596   5.750
   83DOPC   C3B  995   6.738   2.568   5.450
   83DOPC   C4B  996   6.733   2.634   5.150
   84DOPC   NC3  997   7.169   8.921   6.950
   84DOPC   PO4  998   7.221   8.935   6.650
   84DOPC   GL1  999   7.176   8.906   6.350
   84DOPC   GL2 1000   7.308   8.929   6.350
   84DOPC   C1A 1001   7.190   8.915   6.050
   84DOPC   D2A 1002   7.178   8.934   5.750
   84DOPC   C3A 1003   7.194   8.921   5.450
   84DOPC   C4A 1004   7.221   8.894   5.150
   84DOPC   C1B 1005   7.580   8.908   6.050
   84DOPC   D2B 1006   7.565   8.885   5.750
   84DOPC   C3B 1007   7.506   8.858   5.450
   84DOPC   C4B 1008   7.540   8.896   5.150
   85DOPC   NC3 1009   2.072   5.190   6.950
   85DOPC   PO4 1010   2.148   5.147   6.650
   85DOPC   GL1 1011   2.100   5.161   6.350
   85DOPC   GL2 1012   1.931   5.034   6.350
   85DOPC   C1A 1013   2.163   5.115   6.050
   85DOPC   D2A 1014   2.128   5.154   5.750
   85DOPC   C3A 1015   2.106   5.128   5.450
   85DOPC   C4A 1016   2.066   5.110   5.150
   85DOPC   C1B 1017   1.803   4.905   6.050
   85DOPC   D2B 1018   1.870   4.923   5.750
   85DOPC   C3B 1019   1.796   4.959   5.450
   85DOPC   C4B 1020   1.837   4.949   5.150
   86DOPC   NC3 1021  14.175   4.853   6.950
   86DOPC   PO4 1022  14.236   4.918   6.650
   86DOPC   GL1 1023  14.246   4.874   6.350
   86DOPC   GL2 1024  14.288   5.026   6.350
   86DOPC   C1A 1025  14.230   4.883   6.050
   86DOPC   D2A 1026  14.216   4.879   5.750
   86DOPC   C3A 1027  14.159   4.901   5.450
   86DOPC   C4A 1028  14.216   4.901   5.150
   86DOPC   C1B 1029  14.331   5.237   6.050
   86DOPC   D2B 1030  14.396   5.164   5.750
   86DOPC   C3B 1031  14.336   5.254   5.450
   86DOPC   C4B 1032  14.412   5.215   5.150
   87DOPC   NC3 1033  15.638   6.585   6.950
   87DOPC   PO4 1034  15.667   6.575   6.650
   87DOPC   GL1 1035  15.645   6.552   6.350
   87DOPC   GL2 1036  15.829   6.614   6.350
   87DOPC   C1A 1037  15.656   6.547   6.050
   87DOPC   D2A 1038  15.610   6.532   5.750
   87DOPC   C3A 1039  15.633   6.550   5.450
   87DOPC   C4A 1040  15.605   6.540   5.150
   87DOPC   C1B 1041  15.989   6.644   6.050
   87DOPC   D2B 1042  16.013   6.591   5.750
   87DOPC   C3B 1043  15.944   6.648   5.450
   87DOPC   C4B 1044  16.008   6.609   5.150
   88DOPC   NC3 1045  13.633   6.733   6.950
   88DOPC   PO4 1046  13.659   6.672   6.650
   88DOPC   GL1 1047  13.663   6.670   6.350
   88DOPC   GL2 1048  13.499   6.610   6.350
   88DOPC   C1A 1049  13.693   6.727   6.050
   88DOPC   D2A 1050  13.667   6.734   5.750
   88DOPC   C3A 1051  13.676   6.726   5.450
   88DOPC   C4A 1052  13.694   6.665   5.150
   88DOPC   C1B 1053  13.395   6.478   6.050
   88DOPC   D2B 1054  13.389   6.470   5.750
   88DOPC   C3B 1055  13.341   6.521   5.450
   88DOPC   C4B 1056  13.338   6.487   5.150
   89DOPC   NC3 1057  14.184   4.163   6.950
   89DOPC   PO4 1058  14.219   4.165   6.650
   89DOPC   GL1 1059  14.142   4.148   6.350
   89DOPC   GL2 1060  14.245   4.278   6.350
   89DOPC   C1A 1061  14.170   4.126   6.050
   89DOPC   D2A 1062  14.171   4.095   5.750
   89DOPC   C3A 1063  14.222   4.091   5.450
   89DOPC   C4A 1064  14.159   4.157   5.150
   89DOPC   C1B 1065  14.373   4.472   6.050
   89DOPC   D2B 1066  14.426   4.421   5.750
   89DOPC   C3B 1067  14.374   4.481   5.450
   89DOPC   C4B 1068  14.421   4.415   5.150
   90DOPC   NC3 1069  15.871   3.360   6.950
   90DOPC   PO4 1070  15.919   3.334   6.650
   90DOPC   GL1 1071  15.853   3.349   6.350
   90DOPC   GL2 1072  15.813   3.522   6.350
   90DOPC   C1A 1073  15.928   3.390   6.050
   90DOPC   D2A 1074  15.852   3.370   5.750
   90DOPC   C3A 1075  15.923   3.388   5.450
   90DOPC   C4A 1076  15.859   3.311   5.150
   90DOPC   C1B 1077  15.801   3.724   6.050
   90DOPC   D2B 1078  15.771   3.693   5.750
   90DOPC   C3B 1079  15.708   3.658   5.450
   90DOPC   C4B 1080  15.723   3.639   5.150
   91DOPC   NC3 1081   6.552   5.999   6.950
   91DOPC   PO4 1082   6.521   6.001   6.650
   91DOPC   GL1 1083   6.575   5.976   6.350
   91DOPC   GL2 1084   6.581   5.836   6.350
   91DOPC   C1A 1085   6.543   5.986   6.050
   91DOPC   D2A 1086   6.534   5.958   5.750
   91DOPC   C3A 1087   6.539   6.013   5.450
   91DOPC   C4A 1088   6.543   6.028   5.150
   91DOPC   C1B 1089   6.656   5.627   6.050
   91DOPC   D2B 1090   6.648   5.661   5.750
   91DOPC   C3B 1091   6.594   5.629   5.450
   91DOPC   C4B 1092   6.638   5.617   5.150
   92DOPC   NC3 1093   9.645   0.583   6.950
   92DOPC   PO4 1094   9.640   0.655   6.650
   92DOPC   GL1 1095   9.671   0.629   6.350
   92DOPC   GL2 1096   9.670   0.436   6.350
   92DOPC   C1A 1097   9.698   0.642   6.050
   92DOPC   D2A 1098   9.655   0.605   5.750
   92DOPC   C3A 1099   9.689   0.637   5.450
   92DOPC   C4A 1100   9.642   0.588   5.150
   92DOPC   C1B 1101   9.619   0.214   6.050
   92DOPC   D2B 1102   9.679   0.212   5.750
   92DOPC   C3B 1103   9.598   0.214   5.450
   92DOPC   C4B 1104   9.622   0.241   5.150
   93DOPC   NC3 1105  11.009   1.114   6.950
   93DOPC   PO4 1106  11.003   1.142   6.650
   93DOPC   GL1 1107  11.011   1.161   6.350
   93DOPC   GL2 1108  11.196   1.203   6.350
   93DOPC   C1A 1109  11.074   1.171   6.050
   93DOPC   D2A 1110  11.088   1.107   5.750
   93DOPC   C3A 1111  10.996   1.097   5.450
   93DOPC   C4A 1112  11.015   1.096   5.150
   93DOPC   C1B 1113  11.407   1.306   6.050
   93DOPC   D2B 1114  11.360   1.241   5.750
   93DOPC   C3B 1115  11.403   1.283   5.450
   93DOPC   C4B 1116  11.410   1.288   5.150
   94DOPC   NC3 1117  12.828   4.117   6.950
   94DOPC   PO4 1118  12.928   4.162   6.650
   94DOPC   GL1 1119  12.883   4.134   6.350
   94DOPC   GL2 1120  12.762   4.249   6.350
   94DOPC   C1A 1121  12.905   4.122   6.050
   94DOPC   D2A 1122  12.866   4.207   5.750
   94DOPC   C3A 1123  12.902   4.190   5.450
   94DOPC   C4A 1124  12.910   4.185   5.150
   94DOPC   C1B 1125  12.567   4.349   6.050
   94DOPC   D2B 1126  12.646   4.446   5.750
   94DOPC   C3B 1127  12.593   4.377   5.450
   94DOPC   C4B 1128  12.657   4.400   5.150
   95DOPC   NC3 1129  19.741   3.692   6.950
   95DOPC   PO4 1130  19.819   3.686   6.650
   95DOPC   GL1 1131  19.744   3.691   6.350
   95DOPC   GL2 1132  19.692   3.544   6.350
   95DOPC   C1A 1133  19.820   3.627   6.050
   95DOPC   D2A 1134  19.794   3.632   5.750
   95DOPC   C3A 1135  19.725   3.650   5.450
   95DOPC   C4A 1136  19.785   3.687   5.150
   95DOPC   C1B 1137  19.578   3.318   6.050
   95DOPC   D2B 1138  19.609   3.407   5.750
   95DOPC   C3B 1139  19.566   3.324   5.450
   95DOPC   C4B 1140  19.568   3.392   5.150
   96DOPC   NC3 1141  14.940   1.051   6.950
   96DOPC   PO4 1142  14.971   1.004   6.650
   96DOPC   GL1 1143  14.950   1.010   6.350
   96DOPC   GL2 1144  15.004   1.181   6.350
   96DOPC   C1A 1145  14.958   1.066   6.050
   96DOPC   D2A 1146  14.974   1.054   5.750
   96DOPC   C3A 1147  15.036   1.073   5.450
   96DOPC   C4A 1148  14.981   1.026   5.150
   96DOPC   C1B 1149  15.128   1.403   6.050
   96DOPC   D2B 1150  15.136   1.344   5.750
   96DOPC   C3B 1151  15.132   1.327   5.450
   96DOPC   C4B 1152  15.099   1.400   5.150
   97DOPC   NC3 1153   9.060   8.138   6.950
   97DOPC   PO4 1154   9.055   8.198   6.650
   97DOPC   GL1 1155   9.059   8.174   6.350
   97DOPC   GL2 1156   8.856   8.166   6.350
   97DOPC   C1A 1157   9.116   8.175   6.050
   97DOPC   D2A 1158   9.043   8.116   5.750
   97DOPC   C3A 1159   9.060   8.181   5.450
   97DOPC   C4A 1160   9.063   8.211   5.150
   97DOPC   C1B 1161   8.763   8.071   6.050
   97DOPC   D2B 1162   8.751   8.132   5.750
   97DOPC   C3B 1163   8.735   8.059   5.450
   97DOPC   C4B 1164   8.769   8.100   5.150
   98DOPC   NC3 1165  11.196   9.870   6.950
   98DOPC   PO4 1166  11.186   9.829   6.650
   98DOPC   GL1 1167  11.248   9.847   6.350
   98DOPC   GL2 1168  11.166   9.659   6.350
   98DOPC   C1A 1169  11.196   9.874   6.050
   98DOPC   D2A 1170  11.188   9.840   5.750
   98DOPC   C3A 1171  11.259   9.801   5.450
   98DOPC   C4A 1172  11.206   9.835   5.150
   98DOPC   C1B 1173  11.134   9.450   6.050
   98DOPC   D2B 1174  11.140   9.463   5.750
   98DOPC   C3B 1175  11.184   9.507   5.450
   98DOPC   C4B 1176  11.159   9.525   5.150
   99DOPC   NC3 1177   3.388   5.964   6.950
   99DOPC   PO4 1178   3.448   5.974   6.650
   99DOPC   GL1 1179   3.466   5.979   6.350
   99DOPC   GL2 1180   3.506   5.804   6.350
   99DOPC   C1A 1181   3.380   5.992   6.050
   99DOPC   D2A 1182   3.388   5.982   5.750
   99DOPC   C3A 1183   3.446   5.950   5.450
   99DOPC   C4A 1184   3.436   5.961   5.150
   99DOPC   C1B 1185   3.607   5.617   6.050
   99DOPC   D2B 1186   3.583   5.706   5.750
   99DOPC   C3B 1187   3.570   5.622   5.450
   99DOPC   C4B 1188   3.611   5.663   5.150
  100DOPC   NC3 1189   7.508   5.908   6.950
  100DOPC   PO4 1190   7.497   5.954   6.650
  100DOPC   GL1 1191   7.450   5.948   6.350
  100DOPC   GL2 1192   7.375   5.865   6.350
  100DOPC   C1A 1193   7.453   5.985   6.050
  100DOPC   D2A 1194   7.452   5.951   5.750
  100DOPC   C3A 1195   7.441   5.993   5.450
  100DOPC   C4A 1196   7.447   5.990   5.150
  100DOPC   C1B 1197   7.245   5.715   6.050
  100DOPC   D2B 1198   7.196   5.649   5.750
  100DOPC   C3B 1199   7.196   5.640   5.450
  100DOPC   C4B 1200   7.191   5.684   5.150
  101DOPC   NC3 1201  12.606   1.224   6.950
  101DOPC   PO4 1202  12.611   1.251   6.650
  101DOPC   GL1 1203  12.566   1.290   6.350
  101DOPC   GL2 1204  12.785   1.251   6.350
  101DOPC   C1A 1205  12.597   1.249   6.050
  101DOPC   D2A 1206  12.561   1.200   5.750
  101DOPC   C3A 1207  12.578   1.241   5.450
  101DOPC   C4A 1208  12.541   1.208   5.150
  101DOPC   C1B 1209  12.927   1.157   6.050
  101DOPC   D2B 1210  12.925   1.186   5.750
  101DOPC   C3B 1211  12.888   1.169   5.450
  101DOPC   C4B 1212  12.907   1.130   5.150
  102DOPC   NC3 1213   6.706   4.914   6.950
  102DOPC   PO4 1214   6.695   4.928   6.650
  102DOPC   GL1 1215   6.675   4.890   6.350
  102DOPC   GL2 1216   6.581   5.041   6.350
  102DOPC   C1A 1217   6.698   4.938   6.050
  102DOPC   D2A 1218   6.706   4.896   5.750
  102DOPC   C3A 1219   6.717   4.850   5.450
  102DOPC   C4A 1220   6.654   4.937   5.150
  102DOPC   C1B 1221   6.473   5.193   6.050
  102DOPC   D2B 1222   6.480   5.175   5.750
  102DOPC   C3B 1223   6.503   5.256   5.450
  102DOPC   C4B 1224   6.501   5.191   5.150
  103DOPC   NC3 1225  10.637   8.791   6.950
  103DOPC   PO4 1226  10.605   8.861   6.650
  103DOPC   GL1 1227  10.573   8.847   6.350
  103DOPC   GL2 1228  10.463   8.896   6.350
  103DOPC   C1A 1229  10.635   8.777   6.050
  103DOPC   D2A 1230  10.626   8.839   5.750
  103DOPC   C3A 1231  10.608   8.847   5.450
  103DOPC   C4A 1232  10.645   8.838   5.150
  103DOPC   C1B 1233  10.270   8.976   6.050
  103DOPC   D2B 1234  10.312   8.922   5.750
  103DOPC   C3B 1235  10.270   8.989   5.450
  103DOPC   C4B 1236  10.294   8.973   5.150
  104DOPC   NC3 1237  10.454   7.921   6.950
  104DOPC   PO4 1238  10.390   7.902   6.650
  104DOPC   GL1 1239  10.446   7.948   6.350
  104DOPC   GL2 1240  10.423   8.140   6.350
  104DOPC   C1A 1241  10.473   7.965   6.050
  104DOPC   D2A 1242  10.378   7.977   5.750
  104DOPC   C3A 1243  10.451   7.966   5.450
  104DOPC   C4A 1244  10.377   7.989   5.150
  104DOPC   C1B 1245  10.421   8.355   6.050
  104DOPC   D2B 1246  10.454   8.263   5.750
  104DOPC   C3B 1247  10.428   8.331   5.450
  104DOPC   C4B 1248  10.454   8.333   5.150
  105DOPC   NC3 1249   7.989   0.528   6.950
  105DOPC   PO4 1250   7.974   0.564   6.650
  105DOPC   GL1 1251   7.988   0.541   6.350
  105DOPC   GL2 1252   8.146   0.424   6.350
  105DOPC   C1A 1253   7.977   0.502   6.050
  105DOPC   D2A 1254   8.009   0.589   5.750
  105DOPC   C3A 1255   7.971   0.541   5.450
  105DOPC   C4A 1256   8.001   0.532   5.150
  105DOPC   C1B 1257   8.236   0.307   6.050
  105DOPC   D2B 1258   8.261   0.340   5.750
  105DOPC   C3B 1259   8.277   0.362   5.450
  105DOPC   C4B 1260   8.277   0.297   5.150
  106DOPC   NC3 1261   9.501   2.745   6.950
  106DOPC   PO4 1262   9.472   2.759   6.650
  106DOPC   GL1 1263   9.495   2.761   6.350
  106DOPC   GL2 1264   9.683   2.781   6.350
  106DOPC   C1A 1265   9.507   2.753   6.050
  106DOPC   D2A 1266   9.495   2.783   5.750
  106DOPC   C3A 1267   9.482   2.792   5.450
  106DOPC   C4A 1268   9.488   2.731   5.150
  106DOPC   C1B 1269   9.846   2.667   6.050
  106DOPC   D2B 1270   9.794   2.689   5.750
  106DOPC   C3B 1271   9.828   2.679   5.450
  106DOPC   C4B 1272   9.850   2.662   5.150
  107DOPC   NC3 1273   9.858   6.506   6.950
  107DOPC   PO4 1274   9.782   6.489   6.650
  107DOPC   GL1 1275   9.808   6.508   6.350
  107DOPC   GL2 1276   9.681   6.627   6.350
  107DOPC   C1A 1277   9.781   6.488   6.050
  107DOPC   D2A 1278   9.877   6.513   5.750
  107DOPC   C3A 1279   9.782   6.562   5.450
  107DOPC   C4A 1280   9.802   6.545   5.150
  107DOPC   C1B 1281   9.549   6.653   6.050
  107DOPC   D2B 1282   9.469   6.647   5.750
  107DOPC   C3B 1283   9.470   6.678   5.450
  107DOPC   C4B 1284   9.483   6.657   5.150
  108DOPC   NC3 1285  19.670   6.751   6.950
  108DOPC   PO4 1286  19.627   6.786   6.650
  108DOPC   GL1 1287  19.630   6.744   6.350
  108DOPC   GL2 1288  19.676   6.576   6.350
  108DOPC   C1A 1289  19.699   6.749   6.050
  108DOPC   D2A 1290  19.635   6.793   5.750
  108DOPC   C3A 1291  19.696   6.752   5.450
  108DOPC   C4A 1292  19.686   6.747   5.150
  108DOPC   C1B 1293  19.668   6.452   6.050
  108DOPC   D2B 1294  19.699   6.431   5.750
  108DOPC   C3B 1295  19.634   6.432   5.450
  108DOPC   C4B 1296  19.612   6.437   5.150
  109DOPC   NC3 1297  16.698   5.999   6.950
  109DOPC   PO4 1298  16.689   5.941   6.650
  109DOPC   GL1 1299  16.675   5.967   6.350
  109DOPC   GL2 1300  16.565   5.834   6.350
  109DOPC   C1A 1301  16.670   6.012   6.050
  109DOPC   D2A 1302  16.739   5.932   5.750
  109DOPC   C3A 1303  16.713   5.999   5.450
  109DOPC   C4A 1304  16.677   5.922   5.150
  109DOPC   C1B 1305  16.524   5.674   6.050
  109DOPC   D2B 1306  16.468   5.649   5.750
  109DOPC   C3B 1307  16.525   5.688   5.450
  109DOPC   C4B 1308  16.502   5.671   5.150
  110DOPC   NC3 1309  12.733   6.019   6.950
  110DOPC   PO4 1310  12.739   6.023   6.650
  110DOPC   GL1 1311  12.779   6.025   6.350
  110DOPC   GL2 1312  12.699   5.823   6.350
  110DOPC   C1A 1313  12.777   5.971   6.050
  110DOPC   D2A 1314  12.715   5.997   5.750
  110DOPC   C3A 1315  12.731   6.019   5.450
  110DOPC   C4A 1316  12.764   5.963   5.150
  110DOPC   C1B 1317  12.724   5.657   6.050
  110DOPC   D2B 1318  12.747   5.649   5.750
  110DOPC   C3B 1319  12.683   5.676   5.450
  110DOPC   C4B 1320  12.750   5.606   5.150
  111DOPC   NC3 1321   7.386   0.299   6.950
  111DOPC   PO4 1322   7.370   0.277   6.650
  111DOPC   GL1 1323   7.349   0.276   6.350
  111DOPC   GL2 1324   7.345   0.411   6.350
  111DOPC   C1A 1325   7.320   0.213   6.050
  111DOPC   D2A 1326   7.375   0.224   5.750
  111DOPC   C3A 1327   7.351   0.274   5.450
  111DOPC   C4A 1328   7.390   0.254   5.150
  111DOPC   C1B 1329   7.340   0.641   6.050
  111DOPC   D2B 1330   7.382   0.583   5.750
  111DOPC   C3B 1331   7.381   0.623   5.450
  111DOPC   C4B 1332   7.393   0.649   5.150
  112DOPC   NC3 1333  19.668   5.270   6.950
  112DOPC   PO4 1334  19.581   5.226   6.650
  112DOPC   GL1 1335  19.597   5.220   6.350
  112DOPC   GL2 1336  19.708   5.033   6.350
  112DOPC   C1A 1337  19.589   5.190   6.050
  112DOPC   D2A 1338  19.669   5.265   5.750
  112DOPC   C3A 1339  19.591   5.186   5.450
  112DOPC   C4A 1340  19.640   5.219   5.150
  112DOPC   C1B 1341  19.707   4.891   6.050
  112DOPC   D2B 1342  19.671   4.857   5.750
  112DOPC   C3B 1343  19.743   4.880   5.450
  112DOPC   C4B 1344  19.662   4.901   5.150
  113DOPC   NC3 1345  19.860   5.765   6.950
  113DOPC   PO4 1346  19.888   5.772   6.650
  113DOPC   GL1 1347  19.846   5.795   6.350
  113DOPC   GL2 1348  19.625   5.772   6.350
  113DOPC   C1A 1349  19.808   5.808   6.050
  113DOPC   D2A 1350  19.846   5.800   5.750
  113DOPC   C3A 1351  19.858   5.832   5.450
  113DOPC   C4A 1352  19.822   5.842   5.150
  113DOPC   C1B 1353  19.466   5.869   6.050
  113DOPC   D2B 1354  19.487   5.825   5.750
  113DOPC   C3B 1355  19.513   5.880   5.450
  113DOPC   C4B 1356  19.519   5.835   5.150
  114DOPC   NC3 1357  19.498   1.997   6.950
  114DOPC   PO4 1358  19.531   1.970   6.650
  114DOPC   GL1 1359  19.484   2.011   6.350
  114DOPC   GL2 1360  19.665   2.003   6.350
  114DOPC   C1A 1361  19.530   1.988   6.050
  114DOPC   D2A 1362  19.473   1.985   5.750
  114DOPC   C3A 1363  19.444   1.979   5.450
  114DOPC   C4A 1364  19.511   1.992   5.150
  114DOPC   C1B 1365  19.825   1.987   6.050
  114DOPC   D2B 1366  19.838   1.990   5.750
  114DOPC   C3B 1367  19.808   1.985   5.450
  114DOPC   C4B 1368  19.876   1.937   5.150
  115DOPC   NC3 1369  18.338   5.869   6.950
  115DOPC   PO4 1370  18.315   5.838   6.650
  115DOPC   GL1 1371  18.326   5.925   6.350
  115DOPC   GL2 1372  18.083   5.837   6.350
  115DOPC   C1A 1373  18.247   5.915   6.050
  115DOPC   D2A 1374  18.317   5.854   5.750
  115DOPC   C3A 1375  18.260   5.880   5.450
  115DOPC   C4A 1376  18.303   5.855   5.150
  115DOPC   C1B 1377  17.942   5.745   6.050
  115DOPC   D2B 1378  17.931   5.746   5.750
  115DOPC   C3B 1379  18.008   5.742   5.450
  115DOPC   C4B 1380  17.919   5.740   5.150
  116DOPC   NC3 1381  13.456   3.327   6.950
  116DOPC   PO4 1382  13.455   3.335   6.650
  116DOPC   GL1 1383  13.416   3.388   6.350
  116DOPC   GL2 1384  13.526   3.502   6.350
  116DOPC   C1A 1385  13.458   3.301   6.050
  116DOPC   D2A 1386  13.442   3.313   5.750
  116DOPC   C3A 1387  13.459   3.313   5.450
  116DOPC   C4A 1388  13.501   3.337   5.150
  116DOPC   C1B 1389  13.557   3.639   6.050
  116DOPC   D2B 1390  13.529   3.666   5.750
  116DOPC   C3B 1391  13.583   3.643   5.450
  116DOPC   C4B 1392  13.568   3.698   5.150
  117DOPC   NC3 1393  16.017   4.996   6.950
  117DOPC   PO4 1394  15.981   4.951   6.650
  117DOPC   GL1 1395  16.003   4.929   6.350
  117DOPC   GL2 1396  15.774   5.064   6.350
  117DOPC   C1A 1397  16.026   4.938   6.050
  117DOPC   D2A 1398  15.989   4.949   5.750
  117DOPC   C3A 1399  15.958   4.959   5.450
  117DOPC   C4A 1400  15.936   4.983   5.150
  117DOPC   C1B 1401  15.641   5.167   6.050
  117DOPC   D2B 1402  15.701   5.113   5.750
  117DOPC   C3B 1403  15.663   5.122   5.450
  117DOPC   C4B 1404  15.683   5.145   5.150
  118DOPC   NC3 1405   7.402   1.797   6.950
  118DOPC   PO4 1406   7.348   1.761   6.650
  118DOPC   GL1 1407   7.390   1.754   6.350
  118DOPC   GL2 1408   7.407   2.011   6.350
  118DOPC   C1A 1409   7.379   1.762   6.050
  118DOPC   D2A 1410   7.346   1.794   5.750
  118DOPC   C3A 1411   7.395   1.791   5.450
  118DOPC   C4A 1412   7.335   1.772   5.150
  118DOPC   C1B 1413   7.337   2.154   6.050
  118DOPC   D2B 1414   7.404   2.126   5.750
  118DOPC   C3B 1415   7.338   2.131   5.450
  118DOPC   C4B 1416   7.345   2.148   5.150
  119DOPC   NC3 1417   0.347   5.629   6.950
  119DOPC   PO4 1418   0.341   5.692   6.650
  119DOPC   GL1 1419   0.363   5.679   6.350
  119DOPC   GL2 1420   0.462   5.787   6.350
  119DOPC   C1A 1421   0.354   5.687   6.050
  119DOPC   D2A 1422   0.342   5.666   5.750
  119DOPC   C3A 1423   0.400   5.648   5.450
  119DOPC   C4A 1424   0.386   5.655   5.150
  119DOPC   C1B 1425   0.542   6.020   6.050
  119DOPC   D2B 1426   0.490   5.958   5.750
  119DOPC   C3B 1427   0.556   5.963   5.450
  119DOPC   C4B 1428   0.561   6.015   5.150
  120DOPC   NC3 1429   5.845   0.256   6.950
  120DOPC   PO4 1430   5.848   0.286   6.650
  120DOPC   GL1 1431   5.855   0.311   6.350
  120DOPC   GL2 1432   5.848   0.447   6.350
  120DOPC   C1A 1433   5.896   0.252   6.050
  120DOPC   D2A 1434   5.865   0.286   5.750
  120DOPC   C3A 1435   5.853   0.227   5.450
  120DOPC   C4A 1436   5.876   0.233   5.150
  120DOPC   C1B 1437   5.790   0.562   6.050
  120DOPC   D2B 1438   5.787   0.621   5.750
  120DOPC   C3B 1439   5.742   0.620   5.450
  120DOPC   C4B 1440   5.776   0.567   5.150
  121DOPC   NC3 1441   7.404   6.711   6.950
  121DOPC   PO4 1442   7.491   6.755   6.650
  121DOPC   GL1 1443   7.442   6.782   6.350
  121DOPC   GL2 1444   7.369   6.584   6.350
  121DOPC   C1A 1445   7.470   6.786   6.050
  121DOPC   D2A 1446   7.417   6.791   5.750
  121DOPC   C3A 1447   7.491   6.791   5.450
  121DOPC   C4A 1448   7.454   6.701   5.150
  121DOPC   C1B 1449   7.314   6.390   6.050
  121DOPC   D2B 1450   7.222   6.385   5.750
  121DOPC   C3B 1451   7.224   6.476   5.450
  121DOPC   C4B 1452   7.283   6.429   5.150
  122DOPC   NC3 1453   4.896   8.203   6.950
  122DOPC   PO4 1454   4.896   8.174   6.650
  122DOPC   GL1 1455   4.878   8.222   6.350
  122DOPC   GL2 1456   5.077   8.164   6.350
  122DOPC   C1A 1457   4.885   8.241   6.050
  122DOPC   D2A 1458   4.858   8.167   5.750
  122DOPC   C3A 1459   4.895   8.189   5.450
  122DOPC   C4A 1460   4.897   8.215   5.150
  122DOPC   C1B 1461   5.260   8.053   6.050
  122DOPC   D2B 1462   5.188   8.074   5.750
  122DOPC   C3B 1463   5.229   8.062   5.450
  122DOPC   C4B 1464   5.162   8.018   5.150
  123DOPC   NC3 1465  17.981   3.500   6.950
  123DOPC   PO4 1466  17.957   3.460   6.650
  123DOPC   GL1 1467  17.900   3.523   6.350
  123DOPC   GL2 1468  18.096   3.506   6.350
  123DOPC   C1A 1469  17.984   3.545   6.050
  123DOPC   D2A 1470  17.990   3.465   5.750
  123DOPC   C3A 1471  17.969   3.473   5.450
  123DOPC   C4A 1472  17.936   3.485   5.150
  123DOPC   C1B 1473  18.295   3.552   6.050
  123DOPC   D2B 1474  18.321   3.534   5.750
  123DOPC   C3B 1475  18.280   3.478   5.450
  123DOPC   C4B 1476  18.344   3.508   5.150
  124DOPC   NC3 1477   2.539   8.068   6.950
  124DOPC   PO4 1478   2.536   8.078   6.650
  124DOPC   GL1 1479   2.542   8.056   6.350
  124DOPC   GL2 1480   2.758   8.077   6.350
  124DOPC   C1A 1481   2.524   8.105   6.050
  124DOPC   D2A 1482   2.608   8.058   5.750
  124DOPC   C3A 1483   2.606   8.076   5.450
  124DOPC   C4A 1484   2.528   8.132   5.150
  124DOPC   C1B 1485   2.908   8.175   6.050
  124DOPC   D2B 1486   2.944   8.149   5.750
  124DOPC   C3B 1487   2.907   8.134   5.450
  124DOPC   C4B 1488   2.890   8.123   5.150
  125DOPC   NC3 1489   3.301   1.989   6.950
  125DOPC   PO4 1490   3.328   1.985   6.650
  125DOPC   GL1 1491   3.368   2.010   6.350
  125DOPC   GL2 1492   3.517   2.003   6.350
  125DOPC   C1A 1493   3.302   2.032   6.050
  125DOPC   D2A 1494   3.318   2.049   5.750
  125DOPC   C3A 1495   3.289   2.008   5.450
  125DOPC   C4A 1496   3.290   2.050   5.150
  125DOPC   C1B 1497   3.662   1.977   6.050
  125DOPC   D2B 1498   3.668   1.960   5.750
  125DOPC   C3B 1499   3.646   1.900   5.450
  125DOPC   C4B 1500   3.637   1.907   5.150
  126DOPC   NC3 1501   5.977   8.817   6.950
  126DOPC   PO4 1502   5.966   8.783   6.650
  126DOPC   GL1 1503   5.950   8.806   6.350
  126DOPC   GL2 1504   5.812   8.848   6.350
  126DOPC   C1A 1505   5.964   8.798   6.050
  126DOPC   D2A 1506   5.975   8.811   5.750
  126DOPC   C3A 1507   6.005   8.872   5.450
  126DOPC   C4A 1508   6.009   8.827   5.150
  126DOPC   C1B 1509   5.685   8.941   6.050
  126DOPC   D2B 1510   5.657   8.973   5.750
  126DOPC   C3B 1511   5.643   8.947   5.450
  126DOPC   C4B 1512   5.677   8.934   5.150
  127DOPC   NC3 1513  15.688   8.009   6.950
  127DOPC   PO4 1514  15.773   7.929   6.650
  127DOPC   GL1 1515  15.689   7.930   6.350
  127DOPC   GL2 1516  15.811   8.106   6.350
  127DOPC   C1A 1517  15.759   7.951   6.050
  127DOPC   D2A 1518  15.719   7.967   5.750
  127DOPC   C3A 1519  15.737   7.985   5.450
  127DOPC   C4A 1520  15.761   7.969   5.150
  127DOPC   C1B 1521  15.950   8.308   6.050
  127DOPC   D2B 1522  15.867   8.282   5.750
  127DOPC   C3B 1523  15.898   8.273   5.450
  127DOPC   C4B 1524  15.873   8.273   5.150
  128DOPC   NC3 1525   1.361   5.654   6.950
  128DOPC   PO4 1526   1.331   5.717   6.650
  128DOPC   GL1 1527   1.277   5.715   6.350
  128DOPC   GL2 1528   1.253   5.806   6.350
  128DOPC   C1A 1529   1.347   5.681   6.050
  128DOPC   D2A 1530   1.315   5.722   5.750
  128DOPC   C3A 1531   1.331   5.695   5.450
  128DOPC   C4A 1532   1.354   5.709   5.150
  128DOPC   C1B 1533   1.126   5.950   6.050
  128DOPC   D2B 1534   1.078   5.974   5.750
  128DOPC   C3B 1535   1.045   5.965   5.450
  128DOPC   C4B 1536   1.083   5.962   5.150
  129DOPC   NC3 1537   4.340   7.487   6.950
  129DOPC   PO4 1538   4.375   7.556   6.650
  129DOPC   GL1 1539   4.300   7.519   6.350
  129DOPC   GL2 1540   4.314   7.326   6.350
  129DOPC   C1A 1541   4.347   7.558   6.050
  129DOPC   D2A 1542   4.348   7.481   5.750
  129DOPC   C3A 1543   4.345   7.565   5.450
  129DOPC   C4A 1544   4.360   7.552   5.150
  129DOPC   C1B 1545   4.197   7.219   6.050
  129DOPC   D2B 1546   4.185   7.188   5.750
  129DOPC   C3B 1547   4.264   7.195   5.450
  129DOPC   C4B 1548   4.173   7.214   5.150
  130DOPC   NC3 1549  13.688   8.024   6.950
  130DOPC   PO4 1550  13.723   8.088   6.650
  130DOPC   GL1 1551  13.684   8.079   6.350
  130DOPC   GL2 1552  13.462   8.157   6.350
  130DOPC   C1A 1553  13.684   8.059   6.050
  130DOPC   D2A 1554  13.731   8.100   5.750
  130DOPC   C3A 1555  13.717   8.073   5.450
  130DOPC   C4A 1556  13.731   8.081   5.150
  130DOPC   C1B 1557  13.345   8.182   6.050
  130DOPC   D2B 1558  13.378   8.148   5.750
  130DOPC   C3B 1559  13.310   8.213   5.450
  130DOPC   C4B 1560  13.383   8.209   5.150
  131DOPC   NC3 1561   1.316   8.319   6.950
  131DOPC   PO4 1562   1.256   8.249   6.650
  131DOPC   GL1 1563   1.280   8.298   6.350
  131DOPC   GL2 1564   1.182   8.136   6.350
  131DOPC   C1A 1565   1.275   8.272   6.050
  131DOPC   D2A 1566   1.316   8.250   5.750
  131DOPC   C3A 1567   1.287   8.306   5.450
  131DOPC   C4A 1568   1.251   8.298   5.150
  131DOPC   C1B 1569   1.127   7.943   6.050
  131DOPC   D2B 1570   1.104   7.931   5.750
  131DOPC   C3B 1571   1.097   7.985   5.450
  131DOPC   C4B 1572   1.096   7.945   5.150
  132DOPC   NC3 1573   9.018   8.736   6.950
  132DOPC   PO4 1574   8.996   8.828   6.650
  132DOPC   GL1 1575   9.035   8.824   6.350
  132DOPC   GL2 1576   8.912   8.860   6.350
  132DOPC   C1A 1577   9.014   8.779   6.050
  132DOPC   D2A 1578   9.026   8.795   5.750
  132DOPC   C3A 1579   9.022   8.806   5.450
  132DOPC   C4A 1580   9.015   8.767   5.150
  132DOPC   C1B 1581   8.716   8.974   6.050
  132DOPC   D2B 1582   8.756   8.983   5.750
  132DOPC   C3B 1583   8.772   8.999   5.450
  132DOPC   C4B 1584   8.737   9.021   5.150
  133DOPC   NC3 1585   8.287   9.638   6.950
  133DOPC   PO4 1586   8.290   9.594   6.650
  133DOPC   GL1 1587   8.334   9.621   6.350
  133DOPC   GL2 1588   8.163   9.619   6.350
  133DOPC   C1A 1589   8.264   9.614   6.050
  133DOPC   D2A 1590   8.345   9.612   5.750
  133DOPC   C3A 1591   8.315   9.607   5.450
  133DOPC   C4A 1592   8.268   9.658   5.150
  133DOPC   C1B 1593   7.959   9.652   6.050
  133DOPC   D2B 1594   7.961   9.660   5.750
  133DOPC   C3B 1595   7.908   9.738   5.450
  133DOPC   C4B 1596   7.995   9.673   5.150
  134DOPC   NC3 1597  10.478   2.540   6.950
  134DOPC   PO4 1598  10.442   2.585   6.650
  134DOPC   GL1 1599  10.485   2.583   6.350
  134DOPC   GL2 1600  10.429   2.708   6.350
  134DOPC   C1A 1601  10.414   2.575   6.050
  134DOPC   D2A 1602  10.393   2.613   5.750
  134DOPC   C3A 1603  10.409   2.515   5.450
  134DOPC   C4A 1604  10.428   2.580   5.150
  134DOPC   C1B 1605  10.456   2.885   6.050
  134DOPC   D2B 1606  10.411   2.898   5.750
  134DOPC   C3B 1607  10.439   2.872   5.450
  134DOPC   C4B 1608  10.384   2.963   5.150
  135DOPC   NC3 1609   6.791   7.414   6.950
  135DOPC   PO4 1610   6.720   7.406   6.650
  135DOPC   GL1 1611   6.809   7.346   6.350
  135DOPC   GL2 1612   6.583   7.347   6.350
  135DOPC   C1A 1613   6.723   7.375   6.050
  135DOPC   D2A 1614   6.763   7.425   5.750
  135DOPC   C3A 1615   6.811   7.364   5.450
  135DOPC   C4A 1616   6.788   7.347   5.150
  135DOPC   C1B 1617   6.386   7.339   6.050
  135DOPC   D2B 1618   6.396   7.332   5.750
  135DOPC   C3B 1619   6.364   7.329   5.450
  135DOPC   C4B 1620   6.414   7.347   5.150
  136DOPC   NC3 1621   3.489   0.571   6.950
  136DOPC   PO4 1622   3.516   0.628   6.650
  136DOPC   GL1 1623   3.545   0.641   6.350
  136DOPC   GL2 1624   3.550   0.450   6.350
  136DOPC   C1A 1625   3.514   0.607   6.050
  136DOPC   D2A 1626   3.501   0.566   5.750
  136DOPC   C3A 1627   3.517   0.566   5.450
  136DOPC   C4A 1628   3.552   0.575   5.150
  136DOPC   C1B 1629   3.478   0.292   6.050
  136DOPC   D2B 1630   3.506   0.253   5.750
  136DOPC   C3B 1631   3.481   0.221   5.450
  136DOPC   C4B 1632   3.515   0.288   5.150
  137DOPC   NC3 1633   1.833   2.097   6.950
  137DOPC   PO4 1634   1.805   2.050   6.650
  137DOPC   GL1 1635   1.805   2.076   6.350
  137DOPC   GL2 1636   1.939   1.969   6.350
  137DOPC   C1A 1637   1.816   2.048   6.050
  137DOPC   D2A 1638   1.801   2.037   5.750
  137DOPC   C3A 1639   1.796   2.114   5.450
  137DOPC   C4A 1640   1.805   2.079   5.150
  137DOPC   C1B 1641   2.100   1.909   6.050
  137DOPC   D2B 1642   2.161   1.918   5.750
  137DOPC   C3B 1643   2.133   1.894   5.450
  137DOPC   C4B 1644   2.105   1.854   5.150
  138DOPC   NC3 1645  15.623   8.998   6.950
  138DOPC   PO4 1646  15.609   8.979   6.650
  138DOPC   GL1 1647  15.616   8.967   6.350
  138DOPC   GL2 1648  15.782   8.863   6.350
  138DOPC   C1A 1649  15.668   8.977   6.050
  138DOPC   D2A 1650  15.674   8.943   5.750
  138DOPC   C3A 1651  15.612   8.934   5.450
  138DOPC   C4A 1652  15.653   8.939   5.150
  138DOPC   C1B 1653  15.947   8.800   6.050
  138DOPC   D2B 1654  16.016   8.813   5.750
  138DOPC   C3B 1655  16.031   8.801   5.450
  138DOPC   C4B 1656  15.943   8.830   5.150
  139DOPC   NC3 1657  10.291   5.729   6.950
  139DOPC   PO4 1658  10.300   5.753   6.650
  139DOPC   GL1 1659  10.289   5.786   6.350
  139DOPC   GL2 1660  10.412   5.785   6.350
  139DOPC   C1A 1661  10.272   5.757   6.050
  139DOPC   D2A 1662  10.220   5.764   5.750
  139DOPC   C3A 1663  10.311   5.803   5.450
  139DOPC   C4A 1664  10.263   5.766   5.150
  139DOPC   C1B 1665  10.588   5.930   6.050
  139DOPC   D2B 1666  10.562   5.884   5.750
  139DOPC   C3B 1667  10.641   5.905   5.450
  139DOPC   C4B 1668  10.592   5.858   5.150
  140DOPC   NC3 1669   2.881   5.002   6.950
  140DOPC   PO4 1670   2.938   4.979   6.650
  140DOPC   GL1 1671   2.951   5.064   6.350
  140DOPC   GL2 1672   2.745   5.075   6.350
  140DOPC   C1A 1673   2.952   5.041   6.050
  140DOPC   D2A 1674   2.955   5.045   5.750
  140DOPC   C3A 1675   2.909   5.010   5.450
  140DOPC   C4A 1676   2.893   5.008   5.150
  140DOPC   C1B 1677   2.542   5.061   6.050
  140DOPC   D2B 1678   2.518   5.122   5.750
  140DOPC   C3B 1679   2.520   5.111   5.450
  140DOPC   C4B 1680   2.612   5.118   5.150
  141DOPC   NC3 1681   5.850   3.330   6.950
  141DOPC   PO4 1682   5.838   3.316   6.650
  141DOPC   GL1 1683   5.842   3.320   6.350
  141DOPC   GL2 1684   5.835   3.533   6.350
  141DOPC   C1A 1685   5.907   3.337   6.050
  141DOPC   D2A 1686   5.917   3.339   5.750
  141DOPC   C3A 1687   5.843   3.350   5.450
  141DOPC   C4A 1688   5.909   3.293   5.150
  141DOPC   C1B 1689   5.718   3.691   6.050
  141DOPC   D2B 1690   5.729   3.666   5.750
  141DOPC   C3B 1691   5.735   3.686   5.450
  141DOPC   C4B 1692   5.732   3.660   5.150
  142DOPC   NC3 1693  14.854   9.813   6.950
  142DOPC   PO4 1694  14.939   9.767   6.650
  142DOPC   GL1 1695  14.882   9.794   6.350
  142DOPC   GL2 1696  15.020   9.624   6.350
  142DOPC   C1A 1697  14.902   9.784   6.050
  142DOPC   D2A 1698  14.882   9.800   5.750
  142DOPC   C3A 1699  14.879   9.747   5.450
  142DOPC   C4A 1700  14.872   9.727   5.150
  142DOPC   C1B 1701  15.194   9.522   6.050
  142DOPC   D2B 1702  15.154   9.575   5.750
  142DOPC   C3B 1703  15.232   9.555   5.450
  142DOPC   C4B 1704  15.201   9.587   5.150
  143DOPC   NC3 1705  18.775   8.820   6.950
  143DOPC   PO4 1706  18.775   8.785   6.650
  143DOPC   GL1 1707  18.778   8.859   6.350
  143DOPC   GL2 1708  18.853   8.892   6.350
  143DOPC   C1A 1709  18.698   8.841   6.050
  143DOPC   D2A 1710  18.776   8.792   5.750
  143DOPC   C3A 1711  18.744   8.835   5.450
  143DOPC   C4A 1712  18.704   8.779   5.150
  143DOPC   C1B 1713  19.057   8.978   6.050
  143DOPC   D2B 1714  19.090   8.994   5.750
  143DOPC   C3B 1715  19.063   8.939   5.450
  143DOPC   C4B 1716  19.090   8.992   5.150
  144DOPC   NC3 1717   7.949   7.432   6.950
  144DOPC   PO4 1718   7.964   7.382   6.650
  144DOPC   GL1 1719   7.938   7.414   6.350
  144DOPC   GL2 1720   8.131   7.349   6.350
  144DOPC   C1A 1721   7.950   7.373   6.050
  144DOPC   D2A 1722   7.933   7.457   5.750
  144DOPC   C3A 1723   7.914   7.452   5.450
  144DOPC   C4A 1724   7.917   7.450   5.150
  144DOPC   C1B 1725   8.309   7.278   6.050
  144DOPC   D2B 1726   8.315   7.356   5.750
  144DOPC   C3B 1727   8.249   7.259   5.450
  144DOPC   C4B 1728   8.328   7.306   5.150
  145DOPC   NC3 1729   1.286   1.360   6.950
  145DOPC   PO4 1730   1.275   1.386   6.650
  145DOPC   GL1 1731   1.253   1.357   6.350
  145DOPC   GL2 1732   1.236   1.221   6.350
  145DOPC   C1A 1733   1.309   1.408   6.050
  145DOPC   D2A 1734   1.294   1.311   5.750
  145DOPC   C3A 1735   1.272   1.378   5.450
  145DOPC   C4A 1736   1.245   1.368   5.150
  145DOPC   C1B 1737   1.139   1.048   6.050
  145DOPC   D2B 1738   1.090   1.057   5.750
  145DOPC   C3B 1739   1.122   1.090   5.450
  145DOPC   C4B 1740   1.108   1.010   5.150
  146DOPC   NC3 1741   3.543   4.408   6.950
  146DOPC   PO4 1742   3.581   4.408   6.650
  146DOPC   GL1 1743   3.534   4.409   6.350
  146DOPC   GL2 1744   3.477   4.245   6.350
  146DOPC   C1A 1745   3.547   4.421   6.050
  146DOPC   D2A 1746   3.546   4.501   5.750
  146DOPC   C3A 1747   3.524   4.497   5.450
  146DOPC   C4A 1748   3.542   4.417   5.150
  146DOPC   C1B 1749   3.497   4.094   6.050
  146DOPC   D2B 1750   3.494   4.085   5.750
  146DOPC   C3B 1751   3.457   4.082   5.450
  146DOPC   C4B 1752   3.484   4.120   5.150
  147DOPC   NC3 1753   2.016   5.970   6.950
  147DOPC   PO4 1754   2.016   5.974   6.650
  147DOPC   GL1 1755   1.977   5.972   6.350
  147DOPC   GL2 1756   1.961   5.821   6.350
  147DOPC   C1A 1757   1.994   5.993   6.050
  147DOPC   D2A 1758   2.006   6.024   5.750
  147DOPC   C3A 1759   2.058   5.949   5.450
  147DOPC   C4A 1760   1.991   6.041   5.150
  147DOPC   C1B 1761   1.892   5.605   6.050
  147DOPC   D2B 1762   1.907   5.664   5.750
  147DOPC   C3B 1763   1.928   5.606   5.450
  147DOPC   C4B 1764   1.903   5.631   5.150
  148DOPC   NC3 1765  16.446   9.663   6.950
  148DOPC   PO4 1766  16.454   9.659   6.650
  148DOPC   GL1 1767  16.389   9.726   6.350
  148DOPC   GL2 1768  16.637   9.695   6.350
  148DOPC   C1A 1769  16.427   9.678   6.050
  148DOPC   D2A 1770  16.372   9.733   5.750
  148DOPC   C3A 1771  16.458   9.727   5.450
  148DOPC   C4A 1772  16.450   9.749   5.150
  148DOPC   C1B 1773  16.760   9.618   6.050
  148DOPC   D2B 1774  16.811   9.612   5.750
  148DOPC   C3B 1775  16.799   9.615   5.450
  148DOPC   C4B 1776  16.721   9.654   5.150
  149DOPC   NC3 1777   2.836   1.122   6.950
  149DOPC   PO4 1778   2.837   1.094   6.650
  149DOPC   GL1 1779   2.835   1.076   6.350
  149DOPC   GL2 1780   2.775   1.186   6.350
  149DOPC   C1A 1781   2.851   1.132   6.050
  149DOPC   D2A 1782   2.856   1.106   5.750
  149DOPC   C3A 1783   2.914   1.107   5.450
  149DOPC   C4A 1784   2.902   1.124   5.150
  149DOPC   C1B 1785   2.569   1.329   6.050
  149DOPC   D2B 1786   2.598   1.278   5.750
  149DOPC   C3B 1787   2.625   1.284   5.450
  149DOPC   C4B 1788   2.591   1.349   5.150
  150DOPC   NC3 1789   2.939   8.869   6.950
  150DOPC   PO4 1790   2.899   8.872   6.650
  150DOPC   GL1 1791   2.969   8.901   6.350
  150DOPC   GL2 1792   2.707   8.942   6.350
  150DOPC   C1A 1793   2.895   8.924   6.050
  150DOPC   D2A 1794   2.954   8.875   5.750
  150DOPC   C3A 1795   2.918   8.893   5.450
  150DOPC   C4A 1796   2.927   8.879   5.150
  150DOPC   C1B 1797   2.598   8.835   6.050
  150DOPC   D2B 1798   2.515   8.908   5.750
  150DOPC   C3B 1799   2.531   8.919   5.450
  150DOPC   C4B 1800   2.613   8.841   5.150
  151DOPC   NC3 1801  19.773   4.462   6.950
  151DOPC   PO4 1802  19.802   4.392   6.650
  151DOPC   GL1 1803  19.779   4.413   6.350
  151DOPC   GL2 1804  19.675   4.285   6.350
  151DOPC   C1A 1805  19.736   4.430   6.050
  151DOPC   D2A 1806  19.787   4.385   5.750
  151DOPC   C3A 1807  19.754   4.430   5.450
  151DOPC   C4A 1808  19.756   4.440   5.150
  151DOPC   C1B 1809  19.590   4.123   6.050
  151DOPC   D2B 1810  19.617   4.161   5.750
  151DOPC   C3B 1811  19.589   4.155   5.450
  151DOPC   C4B 1812  19.599   4.160   5.150
  152DOPC   NC3 1813  15.779   2.604   6.950
  152DOPC   PO4 1814  15.731   2.555   6.650
  152DOPC   GL1 1815  15.758   2.599   6.350
  152DOPC   GL2 1816  15.800   2.723   6.350
  152DOPC   C1A 1817  15.804   2.522   6.050
  152DOPC   D2A 1818  15.813   2.533   5.750
  152DOPC   C3A 1819  15.761   2.608   5.450
  152DOPC   C4A 1820  15.760   2.554   5.150
  152DOPC   C1B 1821  15.892   2.898   6.050
  152DOPC   D2B 1822  15.905   2.891   5.750
  152DOPC   C3B 1823  15.878   2.963   5.450
  152DOPC   C4B 1824  15.845   2.933   5.150
  153DOPC   NC3 1825  18.328   0.450   6.950
  153DOPC   PO4 1826  18.279   0.482   6.650
  153DOPC   GL1 1827  18.342   0.471   6.350
  153DOPC   GL2 1828  18.121   0.437   6.350
  153DOPC   C1A 1829  18.316   0.440   6.050
  153DOPC   D2A 1830  18.262   0.448   5.750
  153DOPC   C3A 1831  18.330   0.472   5.450
  153DOPC   C4A 1832  18.279   0.420   5.150
  153DOPC   C1B 1833  17.903   0.457   6.050
  153DOPC   D2B 1834  17.958   0.390   5.750
  153DOPC   C3B 1835  17.962   0.386   5.450
  153DOPC   C4B 1836  17.922   0.423   5.150
  154DOPC   NC3 1837   0.386   9.521   6.950
  154DOPC   PO4 1838   0.304   9.469   6.650
  154DOPC   GL1 1839   0.365   9.499   6.350
  154DOPC   GL2 1840   0.479   9.699   6.350
  154DOPC   C1A 1841   0.304   9.546   6.050
  154DOPC   D2A 1842   0.315   9.498   5.750
  154DOPC   C3A 1843   0.363   9.514   5.450
  154DOPC   C4A 1844   0.345   9.545   5.150
  154DOPC   C1B 1845   0.537   9.787   6.050
  154DOPC   D2B 1846   0.519   9.798   5.750
  154DOPC   C3B 1847   0.578   9.843   5.450
  154DOPC   C4B 1848   0.520   9.778   5.150
  155DOPC   NC3 1849  17.534   8.042   6.950
  155DOPC   PO4 1850  17.550   8.071   6.650
  155DOPC   GL1 1851  17.525   7.998   6.350
  155DOPC   GL2 1852  17.353   8.177   6.350
  155DOPC   C1A 1853  17.530   8.013   6.050
  155DOPC   D2A 1854  17.466   8.083   5.750
  155DOPC   C3A 1855  17.525   8.040   5.450
  155DOPC   C4A 1856  17.512   8.085   5.150
  155DOPC   C1B 1857  17.234   8.259   6.050
  155DOPC   D2B 1858  17.206   8.189   5.750
  155DOPC   C3B 1859  17.240   8.221   5.450
  155DOPC   C4B 1860  17.188   8.224   5.150
  156DOPC   NC3 1861  18.265   2.050   6.950
  156DOPC   PO4 1862  18.282   2.028   6.650
  156DOPC   GL1 1863  18.326   2.055   6.350
  156DOPC   GL2 1864  18.102   1.964   6.350
  156DOPC   C1A 1865  18.301   2.060   6.050
  156DOPC   D2A 1866  18.342   2.045   5.750
  156DOPC   C3A 1867  18.289   2.057   5.450
  156DOPC   C4A 1868  18.270   2.011   5.150
  156DOPC   C1B 1869  17.947   1.886   6.050
  156DOPC   D2B 1870  17.951   1.942   5.750
  156DOPC   C3B 1871  18.000   1.894   5.450
  156DOPC   C4B 1872  18.005   1.898   5.150
  157DOPC   NC3 1873  14.144   7.159   6.950
  157DOPC   PO4 1874  14.196   7.249   6.650
  157DOPC   GL1 1875  14.188   7.165   6.350
  157DOPC   GL2 1876  14.246   7.333   6.350
  157DOPC   C1A 1877  14.235   7.236   6.050
  157DOPC   D2A 1878  14.156   7.223   5.750
  157DOPC   C3A 1879  14.173   7.162   5.450
  157DOPC   C4A 1880  14.190   7.176   5.150
  157DOPC   C1B 1881  14.379   7.480   6.050
  157DOPC   D2B 1882  14.367   7.536   5.750
  157DOPC   C3B 1883  14.379   7.540   5.450
  157DOPC   C4B 1884  14.399   7.463   5.150
  158DOPC   NC3 1885  15.023   4.915   6.950
  158DOPC   PO4 1886  15.039   4.853   6.650
  158DOPC   GL1 1887  15.042   4.920   6.350
  158DOPC   GL2 1888  15.074   5.067   6.350
  158DOPC   C1A 1889  15.039   4.850   6.050
  158DOPC   D2A 1890  15.021   4.880   5.750
  158DOPC   C3A 1891  15.028   4.875   5.450
  158DOPC   C4A 1892  14.987   4.869   5.150
  158DOPC   C1B 1893  15.116   5.258   6.050
  158DOPC   D2B 1894  15.076   5.243   5.750
  158DOPC   C3B 1895  15.051   5.258   5.450
  158DOPC   C4B 1896  15.108   5.239   5.150
  159DOPC   NC3 1897   4.823   8.920   6.950
  159DOPC   PO4 1898   4.850   8.922   6.650
  159DOPC   GL1 1899   4.913   8.918   6.350
  159DOPC   GL2 1900   5.068   8.869   6.350
  159DOPC   C1A 1901   4.916   8.924   6.050
  159DOPC   D2A 1902   4.833   8.950   5.750
  159DOPC   C3A 1903   4.888   8.886   5.450
  159DOPC   C4A 1904   4.872   8.881   5.150
  159DOPC   C1B 1905   5.188   8.870   6.050
  159DOPC   D2B 1906   5.220   8.841   5.750
  159DOPC   C3B 1907   5.196   8.846   5.450
  159DOPC   C4B 1908   5.185   8.895   5.150
  160DOPC   NC3 1909   5.734   1.018   6.950
  160DOPC   PO4 1910   5.737   1.090   6.650
  160DOPC   GL1 1911   5.757   1.015   6.350
  160DOPC   GL2 1912   5.849   1.240   6.350
  160DOPC   C1A 1913   5.709   1.095   6.050
  160DOPC   D2A 1914   5.746   1.102   5.750
  160DOPC   C3A 1915   5.751   1.085   5.450
  160DOPC   C4A 1916   5.688   1.014   5.150
  160DOPC   C1B 1917   5.882   1.303   6.050
  160DOPC   D2B 1918   5.939   1.376   5.750
  160DOPC   C3B 1919   5.946   1.367   5.450
  160DOPC   C4B 1920   5.896   1.347   5.150
  161DOPC   NC3 1921   9.772   9.495   6.950
  161DOPC   PO4 1922   9.708   9.486   6.650
  161DOPC   GL1 1923   9.736   9.544   6.350
  161DOPC   GL2 1924   9.666   9.688   6.350
  161DOPC   C1A 1925   9.782   9.498   6.050
  161DOPC   D2A 1926   9.698   9.539   5.750
  161DOPC   C3A 1927   9.793   9.480   5.450
  161DOPC   C4A 1928   9.766   9.553   5.150
  161DOPC   C1B 1929   9.578   9.831   6.050
  161DOPC   D2B 1930   9.634   9.845   5.750
  161DOPC   C3B 1931   9.635   9.830   5.450
  161DOPC   C4B 1932   9.589   9.798   5.150
  162DOPC   NC3 1933   5.977   4.448   6.950
  162DOPC   PO4 1934   5.930   4.455   6.650
  162DOPC   GL1 1935   5.941   4.381   6.350
  162DOPC   GL2 1936   5.776   4.307   6.350
  162DOPC   C1A 1937   5.898   4.427   6.050
  162DOPC   D2A 1938   5.981   4.405   5.750
  162DOPC   C3A 1939   5.970   4.451   5.450
  162DOPC   C4A 1940   5.921   4.397   5.150
  162DOPC   C1B 1941   5.704   4.164   6.050
  162DOPC   D2B 1942   5.690   4.161   5.750
  162DOPC   C3B 1943   5.720   4.124   5.450
  162DOPC   C4B 1944   5.740   4.157   5.150
  163DOPC   NC3 1945  10.304   3.565   6.950
  163DOPC   PO4 1946  10.260   3.572   6.650
  163DOPC   GL1 1947  10.304   3.594   6.350
  163DOPC   GL2 1948  10.388   3.555   6.350
  163DOPC   C1A 1949  10.279   3.614   6.050
  163DOPC   D2A 1950  10.231   3.604   5.750
  163DOPC   C3A 1951  10.300   3.538   5.450
  163DOPC   C4A 1952  10.271   3.600   5.150
  163DOPC   C1B 1953  10.581   3.450   6.050
  163DOPC   D2B 1954  10.629   3.442   5.750
  163DOPC   C3B 1955  10.580   3.426   5.450
  163DOPC   C4B 1956  10.625   3.468   5.150
  164DOPC   NC3 1957   4.903   9.794   6.950
  164DOPC   PO4 1958   4.897   9.790   6.650
  164DOPC   GL1 1959   4.864   9.793   6.350
  164DOPC   GL2 1960   5.007   9.693   6.350
  164DOPC   C1A 1961   4.936   9.788   6.050
  164DOPC   D2A 1962   4.850   9.738   5.750
  164DOPC   C3A 1963   4.843   9.721   5.450
  164DOPC   C4A 1964   4.889   9.798   5.150
  164DOPC   C1B 1965   5.223   9.601   6.050
  164DOPC   D2B 1966   5.225   9.615   5.750
  164DOPC   C3B 1967   5.175   9.613   5.450
  164DOPC   C4B 1968   5.249   9.578   5.150
  165DOPC   NC3 1969   4.396   8.998   6.950
  165DOPC   PO4 1970   4.423   8.975   6.650
  165DOPC   GL1 1971   4.444   8.975   6.350
  165DOPC   GL2 1972   4.307   8.915   6.350
  165DOPC   C1A 1973   4.382   9.029   6.050
  165DOPC   D2A 1974   4.377   9.023   5.750
  165DOPC   C3A 1975   4.397   8.986   5.450
  165DOPC   C4A 1976   4.400   8.989   5.150
  165DOPC   C1B 1977   4.086   8.745   6.050
  165DOPC   D2B 1978   4.137   8.796   5.750
  165DOPC   C3B 1979   4.165   8.778   5.450
  165DOPC   C4B 1980   4.171   8.790   5.150
  166DOPC   NC3 1981   5.769   2.094   6.950
  166DOPC   PO4 1982   5.699   2.103   6.650
  166DOPC   GL1 1983   5.716   2.124   6.350
  166DOPC   GL2 1984   5.825   1.956   6.350
  166DOPC   C1A 1985   5.768   2.080   6.050
  166DOPC   D2A 1986   5.710   2.117   5.750
  166DOPC   C3A 1987   5.696   2.137   5.450
  166DOPC   C4A 1988   5.746   2.142   5.150
  166DOPC   C1B 1989   5.891   1.819   6.050
  166DOPC   D2B 1990   5.938   1.819   5.750
  166DOPC   C3B 1991   5.922   1.771   5.450
  166DOPC   C4B 1992   5.907   1.841   5.150
  167DOPC   NC3 1993   5.758   4.853   6.950
  167DOPC   PO4 1994   5.806   4.829   6.650
  167DOPC   GL1 1995   5.785   4.920   6.350
  167DOPC   GL2 1996   5.857   5.014   6.350
  167DOPC   C1A 1997   5.813   4.907   6.050
  167DOPC   D2A 1998   5.788   4.864   5.750
  167DOPC   C3A 1999   5.794   4.849   5.450
  167DOPC   C4A 2000   5.765   4.873   5.150
  167DOPC   C1B 2001   5.856   5.216   6.050
  167DOPC   D2B 2002   5.869   5.261   5.750
  167DOPC   C3B 2003   5.853   5.234   5.450
  167DOPC   C4B 2004   5.871   5.196   5.150
  168DOPC   NC3 2005   5.905   8.258   6.950
  168DOPC   PO4 2006   5.895   8.240   6.650
  168DOPC   GL1 2007   5.924   8.266   6.350
  168DOPC   GL2 2008   5.830   8.140   6.350
  168DOPC   C1A 2009   5.869   8.281   6.050
  168DOPC   D2A 2010   5.918   8.329   5.750
  168DOPC   C3A 2011   5.854   8.272   5.450
  168DOPC   C4A 2012   5.858   8.324   5.150
  168DOPC   C1B 2013   5.747   7.942   6.050
  168DOPC   D2B 2014   5.782   7.999   5.750
  168DOPC   C3B 2015   5.757   7.935   5.450
  168DOPC   C4B 2016   5.695   7.934   5.150
  169DOPC   NC3 2017  11.761   8.228   6.950
  169DOPC   PO4 2018  11.768   8.151   6.650
  169DOPC   GL1 2019  11.769   8.234   6.350
  169DOPC   GL2 2020  12.016   8.091   6.350
  169DOPC   C1A 2021  11.788   8.208   6.050
  169DOPC   D2A 2022  11.782   8.161   5.750
  169DOPC   C3A 2023  11.803   8.190   5.450
  169DOPC   C4A 2024  11.798   8.219   5.150
  169DOPC   C1B 2025  12.133   8.076   6.050
  169DOPC   D2B 2026  12.112   8.078   5.750
  169DOPC   C3B 2027  12.108   8.075   5.450
  169DOPC   C4B 2028  12.103   8.070   5.150
  170DOPC   NC3 2029   9.076   2.713   6.950
  170DOPC   PO4 2030   9.020   2.646   6.650
  170DOPC   GL1 2031   9.078   2.666   6.350
  170DOPC   GL2 2032   8.922   2.764   6.350
  170DOPC   C1A 2033   9.039   2.632   6.050
  170DOPC   D2A 2034   9.029   2.696   5.750
  170DOPC   C3A 2035   9.069   2.673   5.450
  170DOPC   C4A 2036   9.037   2.710   5.150
  170DOPC   C1B 2037   8.731   2.846   6.050
  170DOPC   D2B 2038   8.716   2.824   5.750
  170DOPC   C3B 2039   8.775   2.797   5.450
  170DOPC   C4B 2040   8.691   2.820   5.150
  171DOPC   NC3 2041  16.375   8.131   6.950
  171DOPC   PO4 2042  16.374   8.066   6.650
  171DOPC   GL1 2043  16.433   8.102   6.350
  171DOPC   GL2 2044  16.612   8.165   6.350
  171DOPC   C1A 2045  16.432   8.150   6.050
  171DOPC   D2A 2046  16.461   8.145   5.750
  171DOPC   C3A 2047  16.388   8.065   5.450
  171DOPC   C4A 2048  16.391   8.146   5.150
  171DOPC   C1B 2049  16.765   8.117   6.050
  171DOPC   D2B 2050  16.727   8.120   5.750
  171DOPC   C3B 2051  16.812   8.104   5.450
  171DOPC   C4B 2052  16.721   8.158   5.150
  172DOPC   NC3 2053   2.576   0.305   6.950
  172DOPC   PO4 2054   2.622   0.279   6.650
  172DOPC   GL1 2055   2.634   0.329   6.350
  172DOPC   GL2 2056   2.773   0.481   6.350
  172DOPC   C1A 2057   2.578   0.302   6.050
  172DOPC   D2A 2058   2.602   0.291   5.750
  172DOPC   C3A 2059   2.566   0.314   5.450
  172DOPC   C4A 2060   2.634   0.338   5.150
  172DOPC   C1B 2061   2.928   0.537   6.050
  172DOPC   D2B 2062   2.869   0.589   5.750
  172DOPC   C3B 2063   2.861   0.554   5.450
  172DOPC   C4B 2064   2.896   0.582   5.150
  173DOPC   NC3 2065  11.142   2.920   6.950
  173DOPC   PO4 2066  11.103   2.861   6.650
  173DOPC   GL1 2067  11.136   2.932   6.350
  173DOPC   GL2 2068  11.189   2.782   6.350
  173DOPC   C1A 2069  11.149   2.845   6.050
  173DOPC   D2A 2070  11.102   2.899   5.750
  173DOPC   C3A 2071  11.074   2.883   5.450
  173DOPC   C4A 2072  11.104   2.877   5.150
  173DOPC   C1B 2073  11.342   2.561   6.050
  173DOPC   D2B 2074  11.295   2.629   5.750
  173DOPC   C3B 2075  11.317   2.550   5.450
  173DOPC   C4B 2076  11.282   2.579   5.150
  174DOPC   NC3 2077  11.777   4.234   6.950
  174DOPC   PO4 2078  11.776   4.197   6.650
  174DOPC   GL1 2079  11.808   4.198   6.350
  174DOPC   GL2 2080  11.993   4.242   6.350
  174DOPC   C1A 2081  11.842   4.225   6.050
  174DOPC   D2A 2082  11.842   4.183   5.750
  174DOPC   C3A 2083  11.789   4.251   5.450
  174DOPC   C4A 2084  11.788   4.232   5.150
  174DOPC   C1B 2085  12.186   4.321   6.050
  174DOPC   D2B 2086  12.183   4.345   5.750
  174DOPC   C3B 2087  12.124   4.386   5.450
  174DOPC   C4B 2088  12.180   4.392   5.150
  175DOPC   NC3 2089   9.795   3.668   6.950
  175DOPC   PO4 2090   9.837   3.674   6.650
  175DOPC   GL1 2091   9.799   3.667   6.350
  175DOPC   GL2 2092   9.675   3.470   6.350
  175DOPC   C1A 2093   9.808   3.607   6.050
  175DOPC   D2A 2094   9.787   3.596   5.750
  175DOPC   C3A 2095   9.845   3.656   5.450
  175DOPC   C4A 2096   9.768   3.641   5.150
  175DOPC   C1B 2097   9.534   3.341   6.050
  175DOPC   D2B 2098   9.527   3.362   5.750
  175DOPC   C3B 2099   9.552   3.360   5.450
  175DOPC   C4B 2100   9.555   3.382   5.150
  176DOPC   NC3 2101  18.697   0.394   6.950
  176DOPC   PO4 2102  18.727   0.388   6.650
  176DOPC   GL1 2103  18.737   0.368   6.350
  176DOPC   GL2 2104  18.936   0.394   6.350
  176DOPC   C1A 2105  18.712   0.419   6.050
  176DOPC   D2A 2106  18.717   0.361   5.750
  176DOPC   C3A 2107  18.775   0.400   5.450
  176DOPC   C4A 2108  18.734   0.361   5.150
  176DOPC   C1B 2109  19.019   0.443   6.050
  176DOPC   D2B 2110  19.059   0.480   5.750
  176DOPC   C3B 2111  19.034   0.487   5.450
  176DOPC   C4B 2112  19.112   0.442   5.150
  177DOPC   NC3 2113  17.307   4.883   6.950
  177DOPC   PO4 2114  17.368   4.915   6.650
  177DOPC   GL1 2115  17.312   4.915   6.350
  177DOPC   GL2 2116  17.369   5.069   6.350
  177DOPC   C1A 2117  17.358   4.850   6.050
  177DOPC   D2A 2118  17.303   4.854   5.750
  177DOPC   C3A 2119  17.353   4.862   5.450
  177DOPC   C4A 2120  17.385   4.835   5.150
  177DOPC   C1B 2121  17.327   5.255   6.050
  177DOPC   D2B 2122  17.361   5.205   5.750
  177DOPC   C3B 2123  17.350   5.178   5.450
  177DOPC   C4B 2124  17.374   5.261   5.150
  178DOPC   NC3 2125   9.633   1.359   6.950
  178DOPC   PO4 2126   9.689   1.428   6.650
  178DOPC   GL1 2127   9.667   1.359   6.350
  178DOPC   GL2 2128   9.650   1.159   6.350
  178DOPC   C1A 2129   9.653   1.389   6.050
  178DOPC   D2A 2130   9.667   1.385   5.750
  178DOPC   C3A 2131   9.697   1.368   5.450
  178DOPC   C4A 2132   9.707   1.376   5.150
  178DOPC   C1B 2133   9.623   0.986   6.050
  178DOPC   D2B 2134   9.611   0.985   5.750
  178DOPC   C3B 2135   9.660   1.055   5.450
  178DOPC   C4B 2136   9.643   1.028   5.150
  179DOPC   NC3 2137  12.713   7.956   6.950
  179DOPC   PO4 2138  12.752   7.946   6.650
  179DOPC   GL1 2139  12.744   7.997   6.350
  179DOPC   GL2 2140  12.769   8.113   6.350
  179DOPC   C1A 2141  12.773   7.989   6.050
  179DOPC   D2A 2142  12.738   7.996   5.750
  179DOPC   C3A 2143  12.765   7.979   5.450
  179DOPC   C4A 2144  12.776   7.982   5.150
  179DOPC   C1B 2145  12.773   8.270   6.050
  179DOPC   D2B 2146  12.728   8.310   5.750
  179DOPC   C3B 2147  12.789   8.328   5.450
  179DOPC   C4B 2148  12.774   8.308   5.150
  180DOPC   NC3 2149  15.048   2.570   6.950
  180DOPC   PO4 2150  15.037   2.555   6.650
  180DOPC   GL1 2151  15.073   2.532   6.350
  180DOPC   GL2 2152  15.016   2.700   6.350
  180DOPC   C1A 2153  15.042   2.581   6.050
  180DOPC   D2A 2154  15.024   2.553   5.750
  180DOPC   C3A 2155  15.054   2.521   5.450
  180DOPC   C4A 2156  15.033   2.556   5.150
  180DOPC   C1B 2157  14.989   2.899   6.050
  180DOPC   D2B 2158  15.002   2.912   5.750
  180DOPC   C3B 2159  15.070   2.957   5.450
  180DOPC   C4B 2160  14.990   2.923   5.150
  181DOPC   NC3 2161  17.398   2.942   6.950
  181DOPC   PO4 2162  17.420   2.938   6.650
  181DOPC   GL1 2163  17.383   2.864   6.350
  181DOPC   GL2 2164  17.342   2.773   6.350
  181DOPC   C1A 2165  17.439   2.913   6.050
  181DOPC   D2A 2166  17.372   2.871   5.750
  181DOPC   C3A 2167  17.386   2.937   5.450
  181DOPC   C4A 2168  17.390   2.924   5.150
  181DOPC   C1B 2169  17.320   2.576   6.050
  181DOPC   D2B 2170  17.255   2.528   5.750
  181DOPC   C3B 2171  17.264   2.580   5.450
  181DOPC   C4B 2172  17.289   2.549   5.150
  182DOPC   NC3 2173  17.391   3.328   6.950
  182DOPC   PO4 2174  17.417   3.356   6.650
  182DOPC   GL1 2175  17.355   3.304   6.350
  182DOPC   GL2 2176  17.390   3.497   6.350
  182DOPC   C1A 2177  17.344   3.373   6.050
  182DOPC   D2A 2178  17.419   3.330   5.750
  182DOPC   C3A 2179  17.353   3.290   5.450
  182DOPC   C4A 2180  17.327   3.306   5.150
  182DOPC   C1B 2181  17.326   3.702   6.050
  182DOPC   D2B 2182  17.388   3.676   5.750
  182DOPC   C3B 2183  17.312   3.679   5.450
  182DOPC   C4B 2184  17.297   3.699   5.150
  183DOPC   NC3 2185  17.228   1.210   6.950
  183DOPC   PO4 2186  17.217   1.168   6.650
  183DOPC   GL1 2187  17.205   1.152   6.350
  183DOPC   GL2 2188  17.367   1.221   6.350
  183DOPC   C1A 2189  17.193   1.160   6.050
  183DOPC   D2A 2190  17.203   1.182   5.750
  183DOPC   C3A 2191  17.145   1.243   5.450
  183DOPC   C4A 2192  17.162   1.159   5.150
  183DOPC   C1B 2193  17.524   1.174   6.050
  183DOPC   D2B 2194  17.576   1.179   5.750
  183DOPC   C3B 2195  17.536   1.235   5.450
  183DOPC   C4B 2196  17.497   1.220   5.150
  184DOPC   NC3 2197  12.101   5.194   6.950
  184DOPC   PO4 2198  12.030   5.226   6.650
  184DOPC   GL1 2199  12.080   5.207   6.350
  184DOPC   GL2 2200  11.927   5.029   6.350
  184DOPC   C1A 2201  12.089   5.255   6.050
  184DOPC   D2A 2202  12.089   5.236   5.750
  184DOPC   C3A 2203  12.069   5.252   5.450
  184DOPC   C4A 2204  12.020   5.194   5.150
  184DOPC   C1B 2205  11.863   4.857   6.050
  184DOPC   D2B 2206  11.926   4.860   5.750
  184DOPC   C3B 2207  11.906   4.891   5.450
  184DOPC   C4B 2208  11.913   4.868   5.150
  185DOPC   NC3 2209   7.401   9.536   6.950
  185DOPC   PO4 2210   7.418   9.473   6.650
  185DOPC   GL1 2211   7.384   9.466   6.350
  185DOPC   GL2 2212   7.343   9.670   6.350
  185DOPC   C1A 2213   7.400   9.484   6.050
  185DOPC   D2A 2214   7.381   9.481   5.750
  185DOPC   C3A 2215   7.429   9.519   5.450
  185DOPC   C4A 2216   7.436   9.486   5.150
  185DOPC   C1B 2217   7.325   9.822   6.050
  185DOPC   D2B 2218   7.290   9.863   5.750
  185DOPC   C3B 2219   7.271   9.880   5.450
  185DOPC   C4B 2220   7.354   9.818   5.150
  186DOPC   NC3 2221   1.788   8.224   6.950
  186DOPC   PO4 2222   1.869   8.197   6.650
  186DOPC   GL1 2223   1.861   8.192   6.350
  186DOPC   GL2 2224   1.948   8.148   6.350
  186DOPC   C1A 2225   1.867   8.183   6.050
  186DOPC   D2A 2226   1.840   8.185   5.750
  186DOPC   C3A 2227   1.817   8.179   5.450
  186DOPC   C4A 2228   1.800   8.192   5.150
  186DOPC   C1B 2229   2.139   8.069   6.050
  186DOPC   D2B 2230   2.096   8.012   5.750
  186DOPC   C3B 2231   2.087   8.072   5.450
  186DOPC   C4B 2232   2.135   8.070   5.150
  187DOPC   NC3 2233   0.392   1.373   6.950
  187DOPC   PO4 2234   0.345   1.412   6.650
  187DOPC   GL1 2235   0.369   1.361   6.350
  187DOPC   GL2 2236   0.417   1.163   6.350
  187DOPC   C1A 2237   0.396   1.343   6.050
  187DOPC   D2A 2238   0.327   1.400   5.750
  187DOPC   C3A 2239   0.385   1.392   5.450
  187DOPC   C4A 2240   0.407   1.365   5.150
  187DOPC   C1B 2241   0.505   1.005   6.050
  187DOPC   D2B 2242   0.461   0.995   5.750
  187DOPC   C3B 2243   0.465   1.053   5.450
  187DOPC   C4B 2244   0.475   1.003   5.150
  188DOPC   NC3 2245   3.646   1.176   6.950
  188DOPC   PO4 2246   3.650   1.140   6.650
  188DOPC   GL1 2247   3.719   1.103   6.350
  188DOPC   GL2 2248   3.558   1.242   6.350
  188DOPC   C1A 2249   3.636   1.127   6.050
  188DOPC   D2A 2250   3.644   1.182   5.750
  188DOPC   C3A 2251   3.717   1.100   5.450
  188DOPC   C4A 2252   3.688   1.167   5.150
  188DOPC   C1B 2253   3.343   1.306   6.050
  188DOPC   D2B 2254   3.306   1.224   5.750
  188DOPC   C3B 2255   3.397   1.240   5.450
  188DOPC   C4B 2256   3.381   1.270   5.150
  189DOPC   NC3 2257  18.320   7.433   6.950
  189DOPC   PO4 2258  18.338   7.369   6.650
  189DOPC   GL1 2259  18.347   7.433   6.350
  189DOPC   GL2 2260  18.155   7.330   6.350
  189DOPC   C1A 2261  18.303   7.419   6.050
  189DOPC   D2A 2262  18.313   7.380   5.750
  189DOPC   C3A 2263  18.293   7.378   5.450
  189DOPC   C4A 2264  18.323   7.410   5.150
  189DOPC   C1B 2265  17.941   7.308   6.050
  189DOPC   D2B 2266  18.005   7.336   5.750
  189DOPC   C3B 2267  17.948   7.276   5.450
  189DOPC   C4B 2268  18.006   7.275   5.150
  190DOPC   NC3 2269   6.668   7.919   6.950
  190DOPC   PO4 2270   6.633   7.971   6.650
  190DOPC   GL1 2271   6.653   7.956   6.350
  190DOPC   GL2 2272   6.578   8.164   6.350
  190DOPC   C1A 2273   6.591   7.985   6.050
  190DOPC   D2A 2274   6.656   7.948   5.750
  190DOPC   C3A 2275   6.643   7.929   5.450
  190DOPC   C4A 2276   6.602   7.991   5.150
  190DOPC   C1B 2277   6.557   8.341   6.050
  190DOPC   D2B 2278   6.561   8.261   5.750
  190DOPC   C3B 2279   6.535   8.284   5.450
  190DOPC   C4B 2280   6.519   8.332   5.150
  191DOPC   NC3 2281  18.012   8.995   6.950
  191DOPC   PO4 2282  17.969   9.048   6.650
  191DOPC   GL1 2283  17.962   8.995   6.350
  191DOPC   GL2 2284  18.108   8.881   6.350
  191DOPC   C1A 2285  18.005   8.968   6.050
  191DOPC   D2A 2286  17.954   9.001   5.750
  191DOPC   C3A 2287  17.969   8.963   5.450
  191DOPC   C4A 2288  17.991   8.997   5.150
  191DOPC   C1B 2289  18.287   8.829   6.050
  191DOPC   D2B 2290  18.243   8.768   5.750
  191DOPC   C3B 2291  18.248   8.776   5.450
  191DOPC   C4B 2292  18.252   8.807   5.150
  192DOPC   NC3 2293  13.429   5.235   6.950
  192DOPC   PO4 2294  13.459   5.213   6.650
  192DOPC   GL1 2295  13.381   5.210   6.350
  192DOPC   GL2 2296  13.543   5.033   6.350
  192DOPC   C1A 2297  13.399   5.184   6.050
  192DOPC   D2A 2298  13.451   5.194   5.750
  192DOPC   C3A 2299  13.463   5.186   5.450
  192DOPC   C4A 2300  13.416   5.241   5.150
  192DOPC   C1B 2301  13.579   4.902   6.050
  192DOPC   D2B 2302  13.628   4.905   5.750
  192DOPC   C3B 2303  13.648   4.881   5.450
  192DOPC   C4B 2304  13.631   4.881   5.150
  193DOPC   NC3 2305  12.729   2.938   6.950
  193DOPC   PO4 2306  12.822   2.903   6.650
  193DOPC   GL1 2307  12.804   2.875   6.350
  193DOPC   GL2 2308  12.743   2.770   6.350
  193DOPC   C1A 2309  12.756   2.877   6.050
  193DOPC   D2A 2310  12.776   2.890   5.750
  193DOPC   C3A 2311  12.795   2.955   5.450
  193DOPC   C4A 2312  12.798   2.954   5.150
  193DOPC   C1B 2313  12.750   2.540   6.050
  193DOPC   D2B 2314  12.734   2.590   5.750
  193DOPC   C3B 2315  12.669   2.588   5.450
  193DOPC   C4B 2316  12.697   2.546   5.150
  194DOPC   NC3 2317  15.648   4.351   6.950
  194DOPC   PO4 2318  15.643   4.316   6.650
  194DOPC   GL1 2319  15.656   4.358   6.350
  194DOPC   GL2 2320  15.808   4.286   6.350
  194DOPC   C1A 2321  15.629   4.313   6.050
  194DOPC   D2A 2322  15.677   4.358   5.750
  194DOPC   C3A 2323  15.644   4.318   5.450
  194DOPC   C4A 2324  15.647   4.329   5.150
  194DOPC   C1B 2325  16.014   4.178   6.050
  194DOPC   D2B 2326  16.015   4.237   5.750
  194DOPC   C3B 2327  15.996   4.235   5.450
  194DOPC   C4B 2328  16.034   4.266   5.150
  195DOPC   NC3 2329   5.914   6.736   6.950
  195DOPC   PO4 2330   5.873   6.716   6.650
  195DOPC   GL1 2331   5.904   6.711   6.350
  195DOPC   GL2 2332   5.771   6.603   6.350
  195DOPC   C1A 2333   5.866   6.792   6.050
  195DOPC   D2A 2334   5.859   6.775   5.750
  195DOPC   C3A 2335   5.828   6.782   5.450
  195DOPC   C4A 2336   5.914   6.771   5.150
  195DOPC   C1B 2337   5.768   6.403   6.050
  195DOPC   D2B 2338   5.774   6.407   5.750
  195DOPC   C3B 2339   5.786   6.417   5.450
  195DOPC   C4B 2340   5.763   6.378   5.150
  196DOPC   NC3 2341   4.365   0.327   6.950
  196DOPC   PO4 2342   4.357   0.269   6.650
  196DOPC   GL1 2343   4.372   0.278   6.350
  196DOPC   GL2 2344   4.260   0.466   6.350
  196DOPC   C1A 2345   4.425   0.267   6.050
  196DOPC   D2A 2346   4.375   0.324   5.750
  196DOPC   C3A 2347   4.397   0.308   5.450
  196DOPC   C4A 2348   4.370   0.254   5.150
  196DOPC   C1B 2349   4.164   0.547   6.050
  196DOPC   D2B 2350   4.147   0.527   5.750
  196DOPC   C3B 2351   4.151   0.590   5.450
  196DOPC   C4B 2352   4.192   0.566   5.150
  197DOPC   NC3 2353   6.462   9.071   6.950
  197DOPC   PO4 2354   6.526   9.051   6.650
  197DOPC   GL1 2355   6.497   9.001   6.350
  197DOPC   GL2 2356   6.567   8.874   6.350
  197DOPC   C1A 2357   6.534   9.085   6.050
  197DOPC   D2A 2358   6.491   9.021   5.750
  197DOPC   C3A 2359   6.457   9.056   5.450
  197DOPC   C4A 2360   6.489   9.066   5.150
  197DOPC   C1B 2361   6.719   8.764   6.050
  197DOPC   D2B 2362   6.646   8.774   5.750
  197DOPC   C3B 2363   6.668   8.731   5.450
  197DOPC   C4B 2364   6.684   8.740   5.150
  198DOPC   NC3 2365   8.020   4.439   6.950
  198DOPC   PO4 2366   8.024   4.469   6.650
  198DOPC   GL1 2367   8.040   4.439   6.350
  198DOPC   GL2 2368   8.126   4.270   6.350
  198DOPC   C1A 2369   8.026   4.418   6.050
  198DOPC   D2A 2370   8.050   4.391   5.750
  198DOPC   C3A 2371   8.023   4.470   5.450
  198DOPC   C4A 2372   8.063   4.466   5.150
  198DOPC   C1B 2373   8.227   4.179   6.050
  198DOPC   D2B 2374   8.205   4.098   5.750
  198DOPC   C3B 2375   8.271   4.184   5.450
  198DOPC   C4B 2376   8.277   4.103   5.150
  199DOPC   NC3 2377   7.410   4.868   6.950
  199DOPC   PO4 2378   7.422   4.894   6.650
  199DOPC   GL1 2379   7.404   4.877   6.350
  199DOPC   GL2 2380   7.338   5.016   6.350
  199DOPC   C1A 2381   7.373   4.884   6.050
  199DOPC   D2A 2382   7.378   4.890   5.750
  199DOPC   C3A 2383   7.444   4.838   5.450
  199DOPC   C4A 2384   7.459   4.933   5.150
  199DOPC   C1B 2385   7.243   5.227   6.050
  199DOPC   D2B 2386   7.263   5.172   5.750
  199DOPC   C3B 2387   7.243   5.262   5.450
  199DOPC   C4B 2388   7.335   5.241   5.150
  200DOPC   NC3 2389   3.578   6.765   6.950
  200DOPC   PO4 2390   3.530   6.795   6.650
  200DOPC   GL1 2391   3.498   6.806   6.350
  200DOPC   GL2 2392   3.470   6.617   6.350
  200DOPC   C1A 2393   3.554   6.765   6.050
  200DOPC   D2A 2394   3.568   6.733   5.750
  200DOPC   C3A 2395   3.531   6.781   5.450
  200DOPC   C4A 2396   3.538   6.802   5.150
  200DOPC   C1B 2397   3.520   6.428   6.050
  200DOPC   D2B 2398   3.500   6.363   5.750
  200DOPC   C3B 2399   3.492   6.407   5.450
  200DOPC   C4B 2400   3.504   6.370   5.150
  201DOPC   NC3 2401   6.600   2.155   6.950
  201DOPC   PO4 2402   6.592   2.104   6.650
  201DOPC   GL1 2403   6.578   2.158   6.350
  201DOPC   GL2 2404   6.540   1.965   6.350
  201DOPC   C1A 2405   6.538   2.158   6.050
  201DOPC   D2A 2406   6.602   2.113   5.750
  201DOPC   C3A 2407   6.548   2.139   5.450
  201DOPC   C4A 2408   6.563   2.188   5.150
  201DOPC   C1B 2409   6.663   1.801   6.050
  201DOPC   D2B 2410   6.581   1.846   5.750
  201DOPC   C3B 2411   6.649   1.845   5.450
  201DOPC   C4B 2412   6.639   1.823   5.150
  202DOPC   NC3 2413  15.699   1.838   6.950
  202DOPC   PO4 2414  15.659   1.838   6.650
  202DOPC   GL1 2415  15.695   1.874   6.350
  202DOPC   GL2 2416  15.820   1.946   6.350
  202DOPC   C1A 2417  15.738   1.834   6.050
  202DOPC   D2A 2418  15.687   1.825   5.750
  202DOPC   C3A 2419  15.690   1.856   5.450
  202DOPC   C4A 2420  15.692   1.816   5.150
  202DOPC   C1B 2421  15.913   2.057   6.050
  202DOPC   D2B 2422  15.927   2.124   5.750
  202DOPC   C3B 2423  15.950   2.105   5.450
  202DOPC   C4B 2424  15.951   2.091   5.150
  203DOPC   NC3 2425   6.725   6.674   6.950
  203DOPC   PO4 2426   6.796   6.649   6.650
  203DOPC   GL1 2427   6.785   6.619   6.350
  203DOPC   GL2 2428   6.564   6.576   6.350
  203DOPC   C1A 2429   6.712   6.693   6.050
  203DOPC   D2A 2430   6.770   6.703   5.750
  203DOPC   C3A 2431   6.704   6.641   5.450
  203DOPC   C4A 2432   6.776   6.675   5.150
  203DOPC   C1B 2433   6.411   6.501   6.050
  203DOPC   D2B 2434   6.380   6.508   5.750
  203DOPC   C3B 2435   6.450   6.561   5.450
  203DOPC   C4B 2436   6.399   6.550   5.150
  204DOPC   NC3 2437  16.724   7.295   6.950
  204DOPC   PO4 2438  16.718   7.308   6.650
  204DOPC   GL1 2439  16.806   7.308   6.350
  204DOPC   GL2 2440  16.598   7.327   6.350
  204DOPC   C1A 2441  16.724   7.334   6.050
  204DOPC   D2A 2442  16.790   7.299   5.750
  204DOPC   C3A 2443  16.732   7.340   5.450
  204DOPC   C4A 2444  16.731   7.320   5.150
  204DOPC   C1B 2445  16.445   7.368   6.050
  204DOPC   D2B 2446  16.422   7.417   5.750
  204DOPC   C3B 2447  16.392   7.432   5.450
  204DOPC   C4B 2448  16.420   7.391   5.150
  205DOPC   NC3 2449  13.617   0.605   6.950
  205DOPC   PO4 2450  13.603   0.555   6.650
  205DOPC   GL1 2451  13.632   0.612   6.350
  205DOPC   GL2 2452  13.504   0.409   6.350
  205DOPC   C1A 2453  13.568   0.609   6.050
  205DOPC   D2A 2454  13.641   0.543   5.750
  205DOPC   C3A 2455  13.618   0.631   5.450
  205DOPC   C4A 2456  13.614   0.627   5.150
  205DOPC   C1B 2457  13.384   0.291   6.050
  205DOPC   D2B 2458  13.447   0.323   5.750
  205DOPC   C3B 2459  13.384   0.317   5.450
  205DOPC   C4B 2460  13.433   0.306   5.150
  206DOPC   NC3 2461   8.938   0.219   6.950
  206DOPC   PO4 2462   8.951   0.223   6.650
  206DOPC   GL1 2463   8.990   0.308   6.350
  206DOPC   GL2 2464   8.912   0.466   6.350
  206DOPC   C1A 2465   8.926   0.215   6.050
  206DOPC   D2A 2466   8.904   0.271   5.750
  206DOPC   C3A 2467   8.964   0.245   5.450
  206DOPC   C4A 2468   8.956   0.256   5.150
  206DOPC   C1B 2469   8.864   0.622   6.050
  206DOPC   D2B 2470   8.822   0.614   5.750
  206DOPC   C3B 2471   8.828   0.581   5.450
  206DOPC   C4B 2472   8.872   0.619   5.150
  207DOPC   NC3 2473  15.953   7.467   6.950
  207DOPC   PO4 2474  15.990   7.389   6.650
  207DOPC   GL1 2475  16.001   7.447   6.350
  207DOPC   GL2 2476  15.859   7.367   6.350
  207DOPC   C1A 2477  15.992   7.431   6.050
  207DOPC   D2A 2478  16.007   7.441   5.750
  207DOPC   C3A 2479  15.987   7.402   5.450
  207DOPC   C4A 2480  15.946   7.392   5.150
  207DOPC   C1B 2481  15.647   7.237   6.050
  207DOPC   D2B 2482  15.696   7.273   5.750
  207DOPC   C3B 2483  15.705   7.261   5.450
  207DOPC   C4B 2484  15.698   7.297   5.150
  208DOPC   NC3 2485   4.963   5.956   6.950
  208DOPC   PO4 2486   4.903   5.976   6.650
  208DOPC   GL1 2487   4.985   5.924   6.350
  208DOPC   GL2 2488   5.010   5.859   6.350
  208DOPC   C1A 2489   4.996   6.017   6.050
  208DOPC   D2A 2490   4.941   5.981   5.750
  208DOPC   C3A 2491   4.988   5.952   5.450
  208DOPC   C4A 2492   4.932   5.945   5.150
  208DOPC   C1B 2493   5.112   5.703   6.050
  208DOPC   D2B 2494   5.148   5.630   5.750
  208DOPC   C3B 2495   5.181   5.698   5.450
  208DOPC   C4B 2496   5.142   5.707   5.150
  209DOPC   NC3 2497  11.243   4.927   6.950
  209DOPC   PO4 2498  11.245   4.901   6.650
  209DOPC   GL1 2499  11.203   4.859   6.350
  209DOPC   GL2 2500  11.203   5.069   6.350
  209DOPC   C1A 2501  11.255   4.840   6.050
  209DOPC   D2A 2502  11.295   4.884   5.750
  209DOPC   C3A 2503  11.279   4.893   5.450
  209DOPC   C4A 2504  11.217   4.919   5.150
  209DOPC   C1B 2505  11.156   5.184   6.050
  209DOPC   D2B 2506  11.144   5.247   5.750
  209DOPC   C3B 2507  11.184   5.176   5.450
  209DOPC   C4B 2508  11.191   5.201   5.150
  210DOPC   NC3 2509  18.945   1.426   6.950
  210DOPC   PO4 2510  18.858   1.374   6.650
  210DOPC   GL1 2511  18.941   1.341   6.350
  210DOPC   GL2 2512  18.880   1.178   6.350
  210DOPC   C1A 2513  18.915   1.342   6.050
  210DOPC   D2A 2514  18.886   1.370   5.750
  210DOPC   C3A 2515  18.882   1.405   5.450
  210DOPC   C4A 2516  18.906   1.411   5.150
  210DOPC   C1B 2517  18.864   0.993   6.050
  210DOPC   D2B 2518  18.844   1.070   5.750
  210DOPC   C3B 2519  18.938   1.071   5.450
  210DOPC   C4B 2520  18.867   0.992   5.150
  211DOPC   NC3 2521  15.000   8.754   6.950
  211DOPC   PO4 2522  14.923   8.775   6.650
  211DOPC   GL1 2523  15.017   8.742   6.350
  211DOPC   GL2 2524  15.043   8.877   6.350
  211DOPC   C1A 2525  14.968   8.709   6.050
  211DOPC   D2A 2526  14.970   8.740   5.750
  211DOPC   C3A 2527  14.935   8.780   5.450
  211DOPC   C4A 2528  14.947   8.699   5.150
  211DOPC   C1B 2529  15.170   9.078   6.050
  211DOPC   D2B 2530  15.092   9.050   5.750
  211DOPC   C3B 2531  15.086   9.011   5.450
  211DOPC   C4B 2532  15.130   9.065   5.150
  212DOPC   NC3 2533  18.681   4.346   6.950
  212DOPC   PO4 2534  18.736   4.307   6.650
  212DOPC   GL1 2535  18.709   4.363   6.350
  212DOPC   GL2 2536  18.869   4.254   6.350
  212DOPC   C1A 2537  18.705   4.360   6.050
  212DOPC   D2A 2538  18.727   4.358   5.750
  212DOPC   C3A 2539  18.759   4.317   5.450
  212DOPC   C4A 2540  18.753   4.346   5.150
  212DOPC   C1B 2541  19.105   4.241   6.050
  212DOPC   D2B 2542  19.024   4.249   5.750
  212DOPC   C3B 2543  19.094   4.238   5.450
  212DOPC   C4B 2544  19.056   4.266   5.150
  213DOPC   NC3 2545   4.388   3.318   6.950
  213DOPC   PO4 2546   4.414   3.332   6.650
  213DOPC   GL1 2547   4.392   3.340   6.350
  213DOPC   GL2 2548   4.322   3.480   6.350
  213DOPC   C1A 2549   4.336   3.334   6.050
  213DOPC   D2A 2550   4.398   3.383   5.750
  213DOPC   C3A 2551   4.357   3.363   5.450
  213DOPC   C4A 2552   4.349   3.356   5.150
  213DOPC   C1B 2553   4.147   3.631   6.050
  213DOPC   D2B 2554   4.174   3.667   5.750
  213DOPC   C3B 2555   4.224   3.634   5.450
  213DOPC   C4B 2556   4.163   3.697   5.150
  214DOPC   NC3 2557  15.958   1.070   6.950
  214DOPC   PO4 2558  15.959   1.042   6.650
  214DOPC   GL1 2559  15.996   1.078   6.350
  214DOPC   GL2 2560  15.850   1.187   6.350
  214DOPC   C1A 2561  15.929   1.054   6.050
  214DOPC   D2A 2562  15.964   1.112   5.750
  214DOPC   C3A 2563  15.966   1.056   5.450
  214DOPC   C4A 2564  15.974   1.133   5.150
  214DOPC   C1B 2565  15.682   1.333   6.050
  214DOPC   D2B 2566  15.640   1.351   5.750
  214DOPC   C3B 2567  15.734   1.316   5.450
  214DOPC   C4B 2568  15.665   1.280   5.150
  215DOPC   NC3 2569  17.190   0.312   6.950
  215DOPC   PO4 2570  17.263   0.327   6.650
  215DOPC   GL1 2571  17.251   0.326   6.350
  215DOPC   GL2 2572  17.335   0.458   6.350
  215DOPC   C1A 2573  17.224   0.354   6.050
  215DOPC   D2A 2574  17.180   0.293   5.750
  215DOPC   C3A 2575  17.226   0.281   5.450
  215DOPC   C4A 2576  17.206   0.351   5.150
  215DOPC   C1B 2577  17.542   0.557   6.050
  215DOPC   D2B 2578  17.538   0.546   5.750
  215DOPC   C3B 2579  17.490   0.584   5.450
  215DOPC   C4B 2580  17.455   0.549   5.150
  216DOPC   NC3 2581   2.918   1.842   6.950
  216DOPC   PO4 2582   2.869   1.842   6.650
  216DOPC   GL1 2583   2.845   1.824   6.350
  216DOPC   GL2 2584   2.707   2.007   6.350
  216DOPC   C1A 2585   2.904   1.824   6.050
  216DOPC   D2A 2586   2.921   1.814   5.750
  216DOPC   C3A 2587   2.917   1.881   5.450
  216DOPC   C4A 2588   2.924   1.886   5.150
  216DOPC   C1B 2589   2.575   2.073   6.050
  216DOPC   D2B 2590   2.563   2.044   5.750
  216DOPC   C3B 2591   2.639   2.063   5.450
  216DOPC   C4B 2592   2.621   2.046   5.150
  217DOPC   NC3 2593   0.607   7.265   6.950
  217DOPC   PO4 2594   0.568   7.292   6.650
  217DOPC   GL1 2595   0.545   7.260   6.350
  217DOPC   GL2 2596   0.415   7.383   6.350
  217DOPC   C1A 2597   0.581   7.243   6.050
  217DOPC   D2A 2598   0.575   7.208   5.750
  217DOPC   C3A 2599   0.538   7.199   5.450
  217DOPC   C4A 2600   0.611   7.255   5.150
  217DOPC   C1B 2601   0.292   7.490   6.050
  217DOPC   D2B 2602   0.332   7.480   5.750
  217DOPC   C3B 2603   0.338   7.460   5.450
  217DOPC   C4B 2604   0.285   7.429   5.150
  218DOPC   NC3 2605  11.322   8.994   6.950
  218DOPC   PO4 2606  11.303   9.048   6.650
  218DOPC   GL1 2607  11.295   8.985   6.350
  218DOPC   GL2 2608  11.237   8.932   6.350
  218DOPC   C1A 2609  11.342   9.015   6.050
  218DOPC   D2A 2610  11.336   9.000   5.750
  218DOPC   C3A 2611  11.323   9.068   5.450
  218DOPC   C4A 2612  11.307   9.031   5.150
  218DOPC   C1B 2613  11.124   8.800   6.050
  218DOPC   D2B 2614  11.044   8.812   5.750
  218DOPC   C3B 2615  11.110   8.732   5.450
  218DOPC   C4B 2616  11.063   8.744   5.150
  219DOPC   NC3 2617  13.379   2.715   6.950
  219DOPC   PO4 2618  13.312   2.694   6.650
  219DOPC   GL1 2619  13.294   2.683   6.350
  219DOPC   GL2 2620  13.492   2.779   6.350
  219DOPC   C1A 2621  13.338   2.733   6.050
  219DOPC   D2A 2622  13.313   2.719   5.750
  219DOPC   C3A 2623  13.345   2.727   5.450
  219DOPC   C4A 2624  13.334   2.694   5.150
  219DOPC   C1B 2625  13.725   2.788   6.050
  219DOPC   D2B 2626  13.708   2.770   5.750
  219DOPC   C3B 2627  13.700   2.813   5.450
  219DOPC   C4B 2628  13.653   2.753   5.150
  220DOPC   NC3 2629   1.269   9.809   6.950
  220DOPC   PO4 2630   1.267   9.830   6.650
  220DOPC   GL1 2631   1.361   9.756   6.350
  220DOPC   GL2 2632   1.250   9.634   6.350
  220DOPC   C1A 2633   1.307   9.832   6.050
  220DOPC   D2A 2634   1.293   9.805   5.750
  220DOPC   C3A 2635   1.330   9.847   5.450
  220DOPC   C4A 2636   1.326   9.762   5.150
  220DOPC   C1B 2637   1.135   9.508   6.050
  220DOPC   D2B 2638   1.051   9.522   5.750
  220DOPC   C3B 2639   1.085   9.507   5.450
  220DOPC   C4B 2640   1.139   9.547   5.150
  221DOPC   NC3 2641  10.594   7.372   6.950
  221DOPC   PO4 2642  10.581   7.376   6.650
  221DOPC   GL1 2643  10.559   7.425   6.350
  221DOPC   GL2 2644  10.396   7.343   6.350
  221DOPC   C1A 2645  10.647   7.358   6.050
  221DOPC   D2A 2646  10.599   7.364   5.750
  221DOPC   C3A 2647  10.626   7.361   5.450
  221DOPC   C4A 2648  10.579   7.416   5.150
  221DOPC   C1B 2649  10.307   7.276   6.050
  221DOPC   D2B 2650  10.311   7.273   5.750
  221DOPC   C3B 2651  10.304   7.329   5.450
  221DOPC   C4B 2652  10.277   7.290   5.150
  222DOPC   NC3 2653  18.040   6.767   6.950
  222DOPC   PO4 2654  18.042   6.725   6.650
  222DOPC   GL1 2655  17.998   6.721   6.350
  222DOPC   GL2 2656  18.173   6.594   6.350
  222DOPC   C1A 2657  18.039   6.742   6.050
  222DOPC   D2A 2658  17.974   6.762   5.750
  222DOPC   C3A 2659  18.015   6.771   5.450
  222DOPC   C4A 2660  17.974   6.714   5.150
  222DOPC   C1B 2661  18.192   6.422   6.050
  222DOPC   D2B 2662  18.194   6.424   5.750
  222DOPC   C3B 2663  18.241   6.498   5.450
  222DOPC   C4B 2664  18.223   6.453   5.150
  223DOPC   NC3 2665  14.990   3.685   6.950
  223DOPC   PO4 2666  14.991   3.634   6.650
  223DOPC   GL1 2667  14.942   3.673   6.350
  223DOPC   GL2 2668  15.047   3.473   6.350
  223DOPC   C1A 2669  14.953   3.667   6.050
  223DOPC   D2A 2670  14.944   3.632   5.750
  223DOPC   C3A 2671  14.941   3.655   5.450
  223DOPC   C4A 2672  14.946   3.630   5.150
  223DOPC   C1B 2673  15.117   3.326   6.050
  223DOPC   D2B 2674  15.081   3.320   5.750
  223DOPC   C3B 2675  15.149   3.380   5.450
  223DOPC   C4B 2676  15.156   3.309   5.150
  224DOPC   NC3 2677  15.185   6.697   6.950
  224DOPC   PO4 2678  15.257   6.701   6.650
  224DOPC   GL1 2679  15.182   6.660   6.350
  224DOPC   GL2 2680  15.020   6.631   6.350
  224DOPC   C1A 2681  15.220   6.674   6.050
  224DOPC   D2A 2682  15.167   6.668   5.750
  224DOPC   C3A 2683  15.228   6.650   5.450
  224DOPC   C4A 2684  15.227   6.673   5.150
  224DOPC   C1B 2685  14.867   6.551   6.050
  224DOPC   D2B 2686  14.939   6.511   5.750
  224DOPC   C3B 2687  14.941   6.517   5.450
  224DOPC   C4B 2688  14.929   6.463   5.150
  225DOPC   NC3 2689  14.315   2.103   6.950
  225DOPC   PO4 2690  14.367   2.171   6.650
  225DOPC   GL1 2691  14.335   2.094   6.350
  225DOPC   GL2 2692  14.280   1.938   6.350
  225DOPC   C1A 2693  14.345   2.184   6.050
  225DOPC   D2A 2694  14.334   2.140   5.750
  225DOPC   C3A 2695  14.390   2.087   5.450
  225DOPC   C4A 2696  14.364   2.167   5.150
  225DOPC   C1B 2697  14.240   1.841   6.050
  225DOPC   D2B 2698  14.253   1.805   5.750
  225DOPC   C3B 2699  14.211   1.818   5.450
  225DOPC   C4B 2700  14.215   1.830   5.150
  226DOPC   NC3 2701   9.011   4.928   6.950
  226DOPC   PO4 2702   9.006   4.894   6.650
  226DOPC   GL1 2703   8.993   4.849   6.350
  226DOPC   GL2 2704   8.916   5.022   6.350
  226DOPC   C1A 2705   9.011   4.870   6.050
  226DOPC   D2A 2706   8.955   4.853   5.750
  226DOPC   C3A 2707   8.980   4.888   5.450
  226DOPC   C4A 2708   8.982   4.855   5.150
  226DOPC   C1B 2709   8.818   5.195   6.050
  226DOPC   D2B 2710   8.851   5.206   5.750
  226DOPC   C3B 2711   8.817   5.239   5.450
  226DOPC   C4B 2712   8.801   5.162   5.150
  227DOPC   NC3 2713  19.799   7.221   6.950
  227DOPC   PO4 2714  19.817   7.278   6.650
  227DOPC   GL1 2715  19.836   7.309   6.350
  227DOPC   GL2 2716  19.655   7.321   6.350
  227DOPC   C1A 2717  19.786   7.281   6.050
  227DOPC   D2A 2718  19.817   7.241   5.750
  227DOPC   C3A 2719  19.840   7.280   5.450
  227DOPC   C4A 2720  19.796   7.232   5.150
  227DOPC   C1B 2721  19.543   7.413   6.050
  227DOPC   D2B 2722  19.559   7.470   5.750
  227DOPC   C3B 2723  19.510   7.443   5.450
  227DOPC   C4B 2724  19.477   7.424   5.150
  228DOPC   NC3 2725   2.567   7.332   6.950
  228DOPC   PO4 2726   2.564   7.288   6.650
  228DOPC   GL1 2727   2.588   7.255   6.350
  228DOPC   GL2 2728   2.734   7.355   6.350
  228DOPC   C1A 2729   2.606   7.329   6.050
  228DOPC   D2A 2730   2.598   7.269   5.750
  228DOPC   C3A 2731   2.623   7.311   5.450
  228DOPC   C4A 2732   2.541   7.253   5.150
  228DOPC   C1B 2733   2.880   7.419   6.050
  228DOPC   D2B 2734   2.867   7.442   5.750
  228DOPC   C3B 2735   2.894   7.392   5.450
  228DOPC   C4B 2736   2.936   7.406   5.150
  229DOPC   NC3 2737  11.076   2.166   6.950
  229DOPC   PO4 2738  11.123   2.173   6.650
  229DOPC   GL1 2739  11.130   2.171   6.350
  229DOPC   GL2 2740  11.156   1.937   6.350
  229DOPC   C1A 2741  11.116   2.149   6.050
  229DOPC   D2A 2742  11.080   2.143   5.750
  229DOPC   C3A 2743  11.117   2.095   5.450
  229DOPC   C4A 2744  11.091   2.154   5.150
  229DOPC   C1B 2745  11.267   1.852   6.050
  229DOPC   D2B 2746  11.307   1.774   5.750
  229DOPC   C3B 2747  11.345   1.844   5.450
  229DOPC   C4B 2748  11.250   1.795   5.150
  230DOPC   NC3 2749  14.456   0.444   6.950
  230DOPC   PO4 2750  14.501   0.445   6.650
  230DOPC   GL1 2751  14.503   0.423   6.350
  230DOPC   GL2 2752  14.296   0.403   6.350
  230DOPC   C1A 2753  14.418   0.445   6.050
  230DOPC   D2A 2754  14.501   0.481   5.750
  230DOPC   C3A 2755  14.427   0.436   5.450
  230DOPC   C4A 2756  14.506   0.486   5.150
  230DOPC   C1B 2757  14.087   0.368   6.050
  230DOPC   D2B 2758  14.114   0.395   5.750
  230DOPC   C3B 2759  14.150   0.447   5.450
  230DOPC   C4B 2760  14.057   0.404   5.150
  231DOPC   NC3 2761  12.125   6.625   6.950
  231DOPC   PO4 2762  12.172   6.613   6.650
  231DOPC   GL1 2763  12.170   6.641   6.350
  231DOPC   GL2 2764  11.958   6.555   6.350
  231DOPC   C1A 2765  12.162   6.593   6.050
  231DOPC   D2A 2766  12.169   6.563   5.750
  231DOPC   C3A 2767  12.105   6.553   5.450
  231DOPC   C4A 2768  12.184   6.590   5.150
  231DOPC   C1B 2769  11.816   6.532   6.050
  231DOPC   D2B 2770  11.821   6.534   5.750
  231DOPC   C3B 2771  11.800   6.582   5.450
  231DOPC   C4B 2772  11.818   6.567   5.150
  232DOPC   NC3 2773   9.488   5.830   6.950
  232DOPC   PO4 2774   9.538   5.831   6.650
  232DOPC   GL1 2775   9.505   5.835   6.350
  232DOPC   GL2 2776   9.630   5.771   6.350
  232DOPC   C1A 2777   9.457   5.785   6.050
  232DOPC   D2A 2778   9.450   5.829   5.750
  232DOPC   C3A 2779   9.454   5.782   5.450
  232DOPC   C4A 2780   9.488   5.816   5.150
  232DOPC   C1B 2781   9.883   5.890   6.050
  232DOPC   D2B 2782   9.792   5.848   5.750
  232DOPC   C3B 2783   9.842   5.816   5.450
  232DOPC   C4B 2784   9.885   5.806   5.150
  233DOPC   NC3 2785  12.532   3.542   6.950
  233DOPC   PO4 2786  12.535   3.481   6.650
  233DOPC   GL1 2787  12.554   3.489   6.350
  233DOPC   GL2 2788  12.744   3.553   6.350
  233DOPC   C1A 2789  12.605   3.526   6.050
  233DOPC   D2A 2790  12.520   3.547   5.750
  233DOPC   C3A 2791  12.559   3.510   5.450
  233DOPC   C4A 2792  12.543   3.470   5.150
  233DOPC   C1B 2793  12.958   3.560   6.050
  233DOPC   D2B 2794  12.889   3.474   5.750
  233DOPC   C3B 2795  12.923   3.512   5.450
  233DOPC   C4B 2796  12.954   3.559   5.150
  234DOPC   NC3 2797  14.150   1.327   6.950
  234DOPC   PO4 2798  14.090   1.324   6.650
  234DOPC   GL1 2799  14.158   1.256   6.350
  234DOPC   GL2 2800  14.245   1.222   6.350
  234DOPC   C1A 2801  14.144   1.260   6.050
  234DOPC   D2A 2802  14.130   1.350   5.750
  234DOPC   C3A 2803  14.086   1.320   5.450
  234DOPC   C4A 2804  14.124   1.266   5.150
  234DOPC   C1B 2805  14.407   1.056   6.050
  234DOPC   D2B 2806  14.427   1.090   5.750
  234DOPC   C3B 2807  14.391   1.135   5.450
  234DOPC   C4B 2808  14.432   1.136   5.150
  235DOPC   NC3 2809   6.448   0.568   6.950
  235DOPC   PO4 2810   6.538   0.570   6.650
  235DOPC   GL1 2811   6.505   0.577   6.350
  235DOPC   GL2 2812   6.635   0.426   6.350
  235DOPC   C1A 2813   6.529   0.594   6.050
  235DOPC   D2A 2814   6.449   0.583   5.750
  235DOPC   C3A 2815   6.531   0.565   5.450
  235DOPC   C4A 2816   6.447   0.567   5.150
  235DOPC   C1B 2817   6.734   0.296   6.050
  235DOPC   D2B 2818   6.664   0.264   5.750
  235DOPC   C3B 2819   6.638   0.298   5.450
  235DOPC   C4B 2820   6.718   0.262   5.150
  236DOPC   NC3 2821   4.226   4.466   6.950
  236DOPC   PO4 2822   4.186   4.398   6.650
  236DOPC   GL1 2823   4.256   4.480   6.350
  236DOPC   GL2 2824   4.273   4.252   6.350
  236DOPC   C1A 2825   4.215   4.425   6.050
  236DOPC   D2A 2826   4.202   4.442   5.750
  236DOPC   C3A 2827   4.181   4.434   5.450
  236DOPC   C4A 2828   4.193   4.455   5.150
  236DOPC   C1B 2829   4.314   4.082   6.050
  236DOPC   D2B 2830   4.374   4.118   5.750
  236DOPC   C3B 2831   4.349   4.126   5.450
  236DOPC   C4B 2832   4.340   4.118   5.150
  237DOPC   NC3 2833  12.653   5.211   6.950
  237DOPC   PO4 2834  12.705   5.234   6.650
  237DOPC   GL1 2835  12.694   5.172   6.350
  237DOPC   GL2 2836  12.774   5.051   6.350
  237DOPC   C1A 2837  12.687   5.196   6.050
  237DOPC   D2A 2838  12.646   5.177   5.750
  237DOPC   C3A 2839  12.662   5.260   5.450
  237DOPC   C4A 2840  12.679   5.184   5.150
  237DOPC   C1B 2841  12.795   4.842   6.050
  237DOPC   D2B 2842  12.820   4.873   5.750
  237DOPC   C3B 2843  12.838   4.834   5.450
  237DOPC   C4B 2844  12.827   4.899   5.150
  238DOPC   NC3 2845   6.498   1.083   6.950
  238DOPC   PO4 2846   6.530   1.036   6.650
  238DOPC   GL1 2847   6.558   1.026   6.350
  238DOPC   GL2 2848   6.571   1.179   6.350
  238DOPC   C1A 2849   6.521   1.061   6.050
  238DOPC   D2A 2850   6.553   1.089   5.750
  238DOPC   C3A 2851   6.524   1.068   5.450
  238DOPC   C4A 2852   6.541   1.025   5.150
  238DOPC   C1B 2853   6.687   1.337   6.050
  238DOPC   D2B 2854   6.687   1.335   5.750
  238DOPC   C3B 2855   6.671   1.339   5.450
  238DOPC   C4B 2856   6.662   1.327   5.150
  239DOPC   NC3 2857   1.172   2.120   6.950
  239DOPC   PO4 2858   1.131   2.125   6.650
  239DOPC   GL1 2859   1.200   2.195   6.350
  239DOPC   GL2 2860   1.248   1.948   6.350
  239DOPC   C1A 2861   1.211   2.149   6.050
  239DOPC   D2A 2862   1.143   2.184   5.750
  239DOPC   C3A 2863   1.132   2.176   5.450
  239DOPC   C4A 2864   1.148   2.100   5.150
  239DOPC   C1B 2865   1.239   1.799   6.050
  239DOPC   D2B 2866   1.229   1.795   5.750
  239DOPC   C3B 2867   1.225   1.772   5.450
  239DOPC   C4B 2868   1.277   1.808   5.150
  240DOPC   NC3 2869   3.337   3.640   6.950
  240DOPC   PO4 2870   3.388   3.601   6.650
  240DOPC   GL1 2871   3.411   3.616   6.350
  240DOPC   GL2 2872   3.477   3.506   6.350
  240DOPC   C1A 2873   3.368   3.581   6.050
  240DOPC   D2A 2874   3.403   3.636   5.750
  240DOPC   C3A 2875   3.355   3.597   5.450
  240DOPC   C4A 2876   3.330   3.587   5.150
  240DOPC   C1B 2877   3.615   3.457   6.050
  240DOPC   D2B 2878   3.650   3.414   5.750
  240DOPC   C3B 2879   3.696   3.412   5.450
  240DOPC   C4B 2880   3.661   3.446   5.150
  241DOPC   NC3 2881  13.427   4.124   6.950
  241DOPC   PO4 2882  13.405   4.075   6.650
  241DOPC   GL1 2883  13.416   4.116   6.350
  241DOPC   GL2 2884  13.471   4.275   6.350
  241DOPC   C1A 2885  13.443   4.138   6.050
  241DOPC   D2A 2886  13.402   4.163   5.750
  241DOPC   C3A 2887  13.417   4.164   5.450
  241DOPC   C4A 2888  13.459   4.122   5.150
  241DOPC   C1B 2889  13.607   4.465   6.050
  241DOPC   D2B 2890  13.574   4.397   5.750
  241DOPC   C3B 2891  13.555   4.420   5.450
  241DOPC   C4B 2892  13.637   4.401   5.150
  242DOPC   NC3 2893   9.666   7.138   6.950
  242DOPC   PO4 2894   9.614   7.229   6.650
  242DOPC   GL1 2895   9.618   7.173   6.350
  242DOPC   GL2 2896   9.649   7.360   6.350
  242DOPC   C1A 2897   9.653   7.214   6.050
  242DOPC   D2A 2898   9.655   7.167   5.750
  242DOPC   C3A 2899   9.594   7.171   5.450
  242DOPC   C4A 2900   9.589   7.215   5.150
  242DOPC   C1B 2901   9.709   7.516   6.050
  242DOPC   D2B 2902   9.751   7.543   5.750
  242DOPC   C3B 2903   9.705   7.488   5.450
  242DOPC   C4B 2904   9.729   7.509   5.150
  243DOPC   NC3 2905   3.421   4.902   6.950
  243DOPC   PO4 2906   3.338   4.915   6.650
  243DOPC   GL1 2907   3.409   4.962   6.350
  243DOPC   GL2 2908   3.496   5.001   6.350
  243DOPC   C1A 2909   3.430   4.933   6.050
  243DOPC   D2A 2910   3.341   4.902   5.750
  243DOPC   C3A 2911   3.346   4.965   5.450
  243DOPC   C4A 2912   3.426   4.887   5.150
  243DOPC   C1B 2913   3.652   5.223   6.050
  243DOPC   D2B 2914   3.668   5.135   5.750
  243DOPC   C3B 2915   3.626   5.228   5.450
  243DOPC   C4B 2916   3.601   5.216   5.150
  244DOPC   NC3 2917   7.457   4.422   6.950
  244DOPC   PO4 2918   7.423   4.454   6.650
  244DOPC   GL1 2919   7.468   4.459   6.350
  244DOPC   GL2 2920   7.351   4.253   6.350
  244DOPC   C1A 2921   7.410   4.451   6.050
  244DOPC   D2A 2922   7.403   4.408   5.750
  244DOPC   C3A 2923   7.398   4.460   5.450
  244DOPC   C4A 2924   7.475   4.395   5.150
  244DOPC   C1B 2925   7.313   4.133   6.050
  244DOPC   D2B 2926   7.241   4.129   5.750
  244DOPC   C3B 2927   7.324   4.169   5.450
  244DOPC   C4B 2928   7.300   4.075   5.150
  245DOPC   NC3 2929  17.550   8.841   6.950
  245DOPC   PO4 2930  17.504   8.800   6.650
  245DOPC   GL1 2931  17.558   8.867   6.350
  245DOPC   GL2 2932  17.335   8.903   6.350
  245DOPC   C1A 2933  17.515   8.827   6.050
  245DOPC   D2A 2934  17.493   8.849   5.750
  245DOPC   C3A 2935  17.506   8.809   5.450
  245DOPC   C4A 2936  17.489   8.879   5.150
  245DOPC   C1B 2937  17.178   8.965   6.050
  245DOPC   D2B 2938  17.232   8.997   5.750
  245DOPC   C3B 2939  17.154   8.984   5.450
  245DOPC   C4B 2940  17.192   8.924   5.150
  246DOPC   NC3 2941   6.028   7.395   6.950
  246DOPC   PO4 2942   5.995   7.318   6.650
  246DOPC   GL1 2943   6.005   7.324   6.350
  246DOPC   GL2 2944   5.824   7.325   6.350
  246DOPC   C1A 2945   6.024   7.366   6.050
  246DOPC   D2A 2946   5.987   7.327   5.750
  246DOPC   C3A 2947   6.002   7.333   5.450
  246DOPC   C4A 2948   5.965   7.328   5.150
  246DOPC   C1B 2949   5.595   7.324   6.050
  246DOPC   D2B 2950   5.628   7.395   5.750
  246DOPC   C3B 2951   5.632   7.362   5.450
  246DOPC   C4B 2952   5.659   7.357   5.150
  247DOPC   NC3 2953   0.241   8.103   6.950
  247DOPC   PO4 2954   0.304   8.126   6.650
  247DOPC   GL1 2955   0.250   8.172   6.350
  247DOPC   GL2 2956   0.421   8.093   6.350
  247DOPC   C1A 2957   0.271   8.140   6.050
  247DOPC   D2A 2958   0.264   8.135   5.750
  247DOPC   C3A 2959   0.230   8.131   5.450
  247DOPC   C4A 2960   0.247   8.191   5.150
  247DOPC   C1B 2961   0.616   8.104   6.050
  247DOPC   D2B 2962   0.579   8.149   5.750
  247DOPC   C3B 2963   0.572   8.108   5.450
  247DOPC   C4B 2964   0.646   8.082   5.150
  248DOPC   NC3 2965  15.921   5.657   6.950
  248DOPC   PO4 2966  15.863   5.664   6.650
  248DOPC   GL1 2967  15.853   5.612   6.350
  248DOPC   GL2 2968  15.852   5.853   6.350
  248DOPC   C1A 2969  15.905   5.619   6.050
  248DOPC   D2A 2970  15.914   5.668   5.750
  248DOPC   C3A 2971  15.829   5.670   5.450
  248DOPC   C4A 2972  15.827   5.642   5.150
  248DOPC   C1B 2973  15.755   5.956   6.050
  248DOPC   D2B 2974  15.762   6.011   5.750
  248DOPC   C3B 2975  15.743   5.949   5.450
  248DOPC   C4B 2976  15.777   5.956   5.150
  249DOPC   NC3 2977   2.704   3.318   6.950
  249DOPC   PO4 2978   2.671   3.383   6.650
  249DOPC   GL1 2979   2.637   3.327   6.350
  249DOPC   GL2 2980   2.754   3.508   6.350
  249DOPC   C1A 2981   2.666   3.308   6.050
  249DOPC   D2A 2982   2.717   3.295   5.750
  249DOPC   C3A 2983   2.715   3.355   5.450
  249DOPC   C4A 2984   2.647   3.328   5.150
  249DOPC   C1B 2985   2.831   3.648   6.050
  249DOPC   D2B 2986   2.817   3.636   5.750
  249DOPC   C3B 2987   2.774   3.691   5.450
  249DOPC   C4B 2988   2.820   3.686   5.150
  250DOPC   NC3 2989   8.823   5.668   6.950
  250DOPC   PO4 2990   8.811   5.640   6.650
  250DOPC   GL1 2991   8.874   5.623   6.350
  250DOPC   GL2 2992   8.850   5.827   6.350
  250DOPC   C1A 2993   8.871   5.666   6.050
  250DOPC   D2A 2994   8.804   5.628   5.750
  250DOPC   C3A 2995   8.825   5.700   5.450
  250DOPC   C4A 2996   8.821   5.670   5.150
  250DOPC   C1B 2997   8.957   5.938   6.050
  250DOPC   D2B 2998   8.968   6.027   5.750
  250DOPC   C3B 2999   8.946   5.986   5.450
  250DOPC   C4B 3000   8.979   5.960   5.150
  251DOPC   NC3 3001  10.619   0.395   6.950
  251DOPC   PO4 3002  10.637   0.380   6.650
  251DOPC   GL1 3003  10.608   0.395   6.350
  251DOPC   GL2 3004  10.462   0.413   6.350
  251DOPC   C1A 3005  10.639   0.405   6.050
  251DOPC   D2A 3006  10.557   0.402   5.750
  251DOPC   C3A 3007  10.564   0.375   5.450
  251DOPC   C4A 3008  10.591   0.361   5.150
  251DOPC   C1B 3009  10.247   0.503   6.050
  251DOPC   D2B 3010  10.286   0.450   5.750
  251DOPC   C3B 3011  10.316   0.450   5.450
  251DOPC   C4B 3012  10.305   0.494   5.150
  252DOPC   NC3 3013   8.296   2.094   6.950
  252DOPC   PO4 3014   8.280   2.045   6.650
  252DOPC   GL1 3015   8.286   2.077   6.350
  252DOPC   GL2 3016   8.110   1.971   6.350
  252DOPC   C1A 3017   8.252   2.099   6.050
  252DOPC   D2A 3018   8.243   2.067   5.750
  252DOPC   C3A 3019   8.248   2.100   5.450
  252DOPC   C4A 3020   8.296   2.041   5.150
  252DOPC   C1B 3021   7.981   1.898   6.050
  252DOPC   D2B 3022   7.988   1.866   5.750
  252DOPC   C3B 3023   7.954   1.897   5.450
  252DOPC   C4B 3024   8.020   1.870   5.150
  253DOPC   NC3 3025   2.744   5.987   6.950
  253DOPC   PO4 3026   2.806   5.945   6.650
  253DOPC   GL1 3027   2.745   6.021   6.350
  253DOPC   GL2 3028   2.711   5.862   6.350
  253DOPC   C1A 3029   2.792   6.036   6.050
  253DOPC   D2A 3030   2.754   5.958   5.750
  253DOPC   C3A 3031   2.741   5.971   5.450
  253DOPC   C4A 3032   2.790   6.025   5.150
  253DOPC   C1B 3033   2.705   5.601   6.050
  253DOPC   D2B 3034   2.706   5.600   5.750
  253DOPC   C3B 3035   2.660   5.645   5.450
  253DOPC   C4B 3036   2.686   5.603   5.150
  254DOPC   NC3 3037  12.005   3.298   6.950
  254DOPC   PO4 3038  11.982   3.353   6.650
  254DOPC   GL1 3039  12.013   3.288   6.350
  254DOPC   GL2 3040  12.002   3.532   6.350
  254DOPC   C1A 3041  11.985   3.311   6.050
  254DOPC   D2A 3042  12.002   3.374   5.750
  254DOPC   C3A 3043  11.966   3.382   5.450
  254DOPC   C4A 3044  11.993   3.326   5.150
  254DOPC   C1B 3045  11.925   3.661   6.050
  254DOPC   D2B 3046  11.969   3.721   5.750
  254DOPC   C3B 3047  11.993   3.685   5.450
  254DOPC   C4B 3048  11.963   3.721   5.150
  255DOPC   NC3 3049   8.198   8.792   6.950
  255DOPC   PO4 3050   8.169   8.785   6.650
  255DOPC   GL1 3051   8.219   8.713   6.350
  255DOPC   GL2 3052   8.140   8.912   6.350
  255DOPC   C1A 3053   8.187   8.698   6.050
  255DOPC   D2A 3054   8.238   8.771   5.750
  255DOPC   C3A 3055   8.231   8.728   5.450
  255DOPC   C4A 3056   8.264   8.760   5.150
  255DOPC   C1B 3057   8.011   9.071   6.050
  255DOPC   D2B 3058   8.022   9.091   5.750
  255DOPC   C3B 3059   8.016   9.036   5.450
  255DOPC   C4B 3060   8.067   9.081   5.150
  256DOPC   NC3 3061  16.495   1.331   6.950
  256DOPC   PO4 3062  16.488   1.375   6.650
  256DOPC   GL1 3063  16.503   1.364   6.350
  256DOPC   GL2 3064  16.632   1.235   6.350
  256DOPC   C1A 3065  16.543   1.345   6.050
  256DOPC   D2A 3066  16.481   1.322   5.750
  256DOPC   C3A 3067  16.458   1.338   5.450
  256DOPC   C4A 3068  16.454   1.347   5.150
  256DOPC   C1B 3069  16.683   1.016   6.050
  256DOPC   D2B 3070  16.667   1.035   5.750
  256DOPC   C3B 3071  16.662   1.085   5.450
  256DOPC   C4B 3072  16.659   1.044   5.150
  257DOPC   NC3 3073   3.537   2.949   6.950
  257DOPC   PO4 3074   3.527   2.954   6.650
  257DOPC   GL1 3075   3.548   2.939   6.350
  257DOPC   GL2 3076   3.528   2.787   6.350
  257DOPC   C1A 3077   3.553   2.873   6.050
  257DOPC   D2A 3078   3.574   2.934   5.750
  257DOPC   C3A 3079   3.513   2.887   5.450
  257DOPC   C4A 3080   3.586   2.882   5.150
  257DOPC   C1B 3081   3.466   2.547   6.050
  257DOPC   D2B 3082   3.470   2.531   5.750
  257DOPC   C3B 3083   3.472   2.522   5.450
  257DOPC   C4B 3084   3.498   2.608   5.150
  258DOPC   NC3 3085   4.209   2.563   6.950
  258DOPC   PO4 3086   4.221   2.639   6.650
  258DOPC   GL1 3087   4.177   2.562   6.350
  258DOPC   GL2 3088   4.245   2.706   6.350
  258DOPC   C1A 3089   4.136   2.555   6.050
  258DOPC   D2A 3090   4.150   2.606   5.750
  258DOPC   C3A 3091   4.187   2.621   5.450
  258DOPC   C4A 3092   4.142   2.621   5.150
  258DOPC   C1B 3093   4.377   2.885   6.050
  258DOPC   D2B 3094   4.378   2.897   5.750
  258DOPC   C3B 3095   4.333   2.845   5.450
  258DOPC   C4B 3096   4.384   2.917   5.150
  259DOPC   NC3 3097  14.106   3.392   6.950
  259DOPC   PO4 3098  14.182   3.404   6.650
  259DOPC   GL1 3099  14.117   3.412   6.350
  259DOPC   GL2 3100  14.302   3.493   6.350
  259DOPC   C1A 3101  14.198   3.392   6.050
  259DOPC   D2A 3102  14.203   3.337   5.750
  259DOPC   C3A 3103  14.192   3.342   5.450
  259DOPC   C4A 3104  14.159   3.395   5.150
  259DOPC   C1B 3105  14.416   3.593   6.050
  259DOPC   D2B 3106  14.357   3.599   5.750
  259DOPC   C3B 3107  14.424   3.685   5.450
  259DOPC   C4B 3108  14.395   3.645   5.150
  260DOPC   NC3 3109  11.783   2.027   6.950
  260DOPC   PO4 3110  11.864   2.042   6.650
  260DOPC   GL1 3111  11.847   2.027   6.350
  260DOPC   GL2 3112  11.943   1.989   6.350
  260DOPC   C1A 3113  11.845   2.080   6.050
  260DOPC   D2A 3114  11.797   2.034   5.750
  260DOPC   C3A 3115  11.821   2.062   5.450
  260DOPC   C4A 3116  11.863   2.098   5.150
  260DOPC   C1B 3117  12.085   1.840   6.050
  260DOPC   D2B 3118  12.090   1.876   5.750
  260DOPC   C3B 3119  12.170   1.852   5.450
  260DOPC   C4B 3120  12.163   1.866   5.150
  261DOPC   NC3 3121   5.121   1.009   6.950
  261DOPC   PO4 3122   5.141   1.044   6.650
  261DOPC   GL1 3123   5.156   1.065   6.350
  261DOPC   GL2 3124   5.068   1.200   6.350
  261DOPC   C1A 3125   5.110   1.006   6.050
  261DOPC   D2A 3126   5.064   1.048   5.750
  261DOPC   C3A 3127   5.068   1.029   5.450
  261DOPC   C4A 3128   5.155   0.988   5.150
  261DOPC   C1B 3129   5.027   1.366   6.050
  261DOPC   D2B 3130   5.034   1.354   5.750
  261DOPC   C3B 3131   4.947   1.325   5.450
  261DOPC   C4B 3132   4.946   1.353   5.150
  262DOPC   NC3 3133   4.410   1.994   6.950
  262DOPC   PO4 3134   4.464   2.075   6.650
  262DOPC   GL1 3135   4.405   1.987   6.350
  262DOPC   GL2 3136   4.320   2.011   6.350
  262DOPC   C1A 3137   4.486   2.029   6.050
  262DOPC   D2A 3138   4.479   2.079   5.750
  262DOPC   C3A 3139   4.401   2.026   5.450
  262DOPC   C4A 3140   4.459   2.070   5.150
  262DOPC   C1B 3141   4.082   1.953   6.050
  262DOPC   D2B 3142   4.136   1.940   5.750
  262DOPC   C3B 3143   4.068   1.951   5.450
  262DOPC   C4B 3144   4.128   1.887   5.150
  263DOPC   NC3 3145   7.184   2.845   6.950
  263DOPC   PO4 3146   7.223   2.906   6.650
  263DOPC   GL1 3147   7.229   2.877   6.350
  263DOPC   GL2 3148   7.340   2.716   6.350
  263DOPC   C1A 3149   7.224   2.835   6.050
  263DOPC   D2A 3150   7.253   2.828   5.750
  263DOPC   C3A 3151   7.225   2.844   5.450
  263DOPC   C4A 3152   7.220   2.895   5.150
  263DOPC   C1B 3153   7.449   2.610   6.050
  263DOPC   D2B 3154   7.526   2.585   5.750
  263DOPC   C3B 3155   7.519   2.602   5.450
  263DOPC   C4B 3156   7.444   2.602   5.150
  264DOPC   NC3 3157   5.928   2.668   6.950
  264DOPC   PO4 3158   5.917   2.640   6.650
  264DOPC   GL1 3159   5.991   2.670   6.350
  264DOPC   GL2 3160   5.864   2.785   6.350
  264DOPC   C1A 3161   5.936   2.655   6.050
  264DOPC   D2A 3162   5.950   2.616   5.750
  264DOPC   C3A 3163   5.912   2.597   5.450
  264DOPC   C4A 3164   5.917   2.644   5.150
  264DOPC   C1B 3165   5.709   2.838   6.050
  264DOPC   D2B 3166   5.647   2.834   5.750
  264DOPC   C3B 3167   5.673   2.816   5.450
  264DOPC   C4B 3168   5.651   2.893   5.150
  265DOPC   NC3 3169  17.972   5.057   6.950
  265DOPC   PO4 3170  17.932   5.054   6.650
  265DOPC   GL1 3171  17.933   5.051   6.350
  265DOPC   GL2 3172  18.084   5.016   6.350
  265DOPC   C1A 3173  17.926   5.018   6.050
  265DOPC   D2A 3174  17.951   5.022   5.750
  265DOPC   C3A 3175  17.991   5.071   5.450
  265DOPC   C4A 3176  17.982   5.085   5.150
  265DOPC   C1B 3177  18.346   5.028   6.050
  265DOPC   D2B 3178  18.279   5.032   5.750
  265DOPC   C3B 3179  18.332   5.022   5.450
  265DOPC   C4B 3180  18.342   5.064   5.150
  266DOPC   NC3 3181   9.002   2.130   6.950
  266DOPC   PO4 3182   8.985   2.081   6.650
  266DOPC   GL1 3183   9.025   2.100   6.350
  266DOPC   GL2 3184   8.907   1.988   6.350
  266DOPC   C1A 3185   9.034   2.119   6.050
  266DOPC   D2A 3186   8.988   2.123   5.750
  266DOPC   C3A 3187   8.957   2.146   5.450
  266DOPC   C4A 3188   8.997   2.139   5.150
  266DOPC   C1B 3189   8.755   1.780   6.050
  266DOPC   D2B 3190   8.766   1.792   5.750
  266DOPC   C3B 3191   8.802   1.781   5.450
  266DOPC   C4B 3192   8.811   1.796   5.150
  267DOPC   NC3 3193   1.829   7.370   6.950
  267DOPC   PO4 3194   1.791   7.316   6.650
  267DOPC   GL1 3195   1.841   7.287   6.350
  267DOPC   GL2 3196   1.928   7.359   6.350
  267DOPC   C1A 3197   1.789   7.335   6.050
  267DOPC   D2A 3198   1.784   7.298   5.750
  267DOPC   C3A 3199   1.804   7.327   5.450
  267DOPC   C4A 3200   1.753   7.291   5.150
  267DOPC   C1B 3201   2.141   7.366   6.050
  267DOPC   D2B 3202   2.115   7.382   5.750
  267DOPC   C3B 3203   2.160   7.346   5.450
  267DOPC   C4B 3204   2.150   7.371   5.150
  268DOPC   NC3 3205  14.489   8.862   6.950
  268DOPC   PO4 3206  14.446   8.884   6.650
  268DOPC   GL1 3207  14.430   8.837   6.350
  268DOPC   GL2 3208  14.316   8.849   6.350
  268DOPC   C1A 3209  14.473   8.891   6.050
  268DOPC   D2A 3210  14.492   8.810   5.750
  268DOPC   C3A 3211  14.416   8.847   5.450
  268DOPC   C4A 3212  14.450   8.880   5.150
  268DOPC   C1B 3213  14.131   8.958   6.050
  268DOPC   D2B 3214  14.082   8.916   5.750
  268DOPC   C3B 3215  14.135   8.993   5.450
  268DOPC   C4B 3216  14.130   8.914   5.150
  269DOPC   NC3 3217   1.325   8.703   6.950
  269DOPC   PO4 3218   1.279   8.776   6.650
  269DOPC   GL1 3219   1.248   8.751   6.350
  269DOPC   GL2 3220   1.209   8.848   6.350
  269DOPC   C1A 3221   1.300   8.757   6.050
  269DOPC   D2A 3222   1.270   8.755   5.750
  269DOPC   C3A 3223   1.315   8.764   5.450
  269DOPC   C4A 3224   1.309   8.722   5.150
  269DOPC   C1B 3225   1.070   9.042   6.050
  269DOPC   D2B 3226   1.160   9.031   5.750
  269DOPC   C3B 3227   1.070   9.077   5.450
  269DOPC   C4B 3228   1.117   9.005   5.150
  270DOPC   NC3 3229   9.734   4.170   6.950
  270DOPC   PO4 3230   9.757   4.142   6.650
  270DOPC   GL1 3231   9.780   4.150   6.350
  270DOPC   GL2 3232   9.680   4.236   6.350
  270DOPC   C1A 3233   9.726   4.096   6.050
  270DOPC   D2A 3234   9.781   4.100   5.750
  270DOPC   C3A 3235   9.803   4.133   5.450
  270DOPC   C4A 3236   9.773   4.104   5.150
  270DOPC   C1B 3237   9.553   4.397   6.050
  270DOPC   D2B 3238   9.556   4.464   5.750
  270DOPC   C3B 3239   9.600   4.468   5.450
  270DOPC   C4B 3240   9.547   4.382   5.150
  271DOPC   NC3 3241   0.363   4.896   6.950
  271DOPC   PO4 3242   0.349   4.874   6.650
  271DOPC   GL1 3243   0.312   4.907   6.350
  271DOPC   GL2 3244   0.451   5.031   6.350
  271DOPC   C1A 3245   0.354   4.930   6.050
  271DOPC   D2A 3246   0.330   4.936   5.750
  271DOPC   C3A 3247   0.382   4.886   5.450
  271DOPC   C4A 3248   0.366   4.851   5.150
  271DOPC   C1B 3249   0.499   5.198   6.050
  271DOPC   D2B 3250   0.541   5.225   5.750
  271DOPC   C3B 3251   0.549   5.207   5.450
  271DOPC   C4B 3252   0.498   5.222   5.150
  272DOPC   NC3 3253   4.436   8.274   6.950
  272DOPC   PO4 3254   4.393   8.295   6.650
  272DOPC   GL1 3255   4.356   8.298   6.350
  272DOPC   GL2 3256   4.308   8.148   6.350
  272DOPC   C1A 3257   4.387   8.248   6.050
  272DOPC   D2A 3258   4.389   8.210   5.750
  272DOPC   C3A 3259   4.447   8.243   5.450
  272DOPC   C4A 3260   4.357   8.223   5.150
  272DOPC   C1B 3261   4.150   7.996   6.050
  272DOPC   D2B 3262   4.133   7.963   5.750
  272DOPC   C3B 3263   4.193   7.959   5.450
  272DOPC   C4B 3264   4.128   8.029   5.150
  273DOPC   NC3 3265  19.094   8.081   6.950
  273DOPC   PO4 3266  19.014   8.013   6.650
  273DOPC   GL1 3267  19.034   8.048   6.350
  273DOPC   GL2 3268  18.919   8.121   6.350
  273DOPC   C1A 3269  19.077   8.066   6.050
  273DOPC   D2A 3270  19.086   8.090   5.750
  273DOPC   C3A 3271  19.020   8.075   5.450
  273DOPC   C4A 3272  19.017   8.038   5.150
  273DOPC   C1B 3273  18.759   8.144   6.050
  273DOPC   D2B 3274  18.699   8.145   5.750
  273DOPC   C3B 3275  18.705   8.159   5.450
  273DOPC   C4B 3276  18.682   8.214   5.150
  274DOPC   NC3 3277  19.694   8.702   6.950
  274DOPC   PO4 3278  19.641   8.738   6.650
  274DOPC   GL1 3279  19.624   8.710   6.350
  274DOPC   GL2 3280  19.641   8.896   6.350
  274DOPC   C1A 3281  19.701   8.687   6.050
  274DOPC   D2A 3282  19.649   8.749   5.750
  274DOPC   C3A 3283  19.641   8.763   5.450
  274DOPC   C4A 3284  19.712   8.684   5.150
  274DOPC   C1B 3285  19.620   9.121   6.050
  274DOPC   D2B 3286  19.641   9.102   5.750
  274DOPC   C3B 3287  19.704   9.083   5.450
  274DOPC   C4B 3288  19.645   9.026   5.150
  275DOPC   NC3 3289  16.495   1.827   6.950
  275DOPC   PO4 3290  16.473   1.839   6.650
  275DOPC   GL1 3291  16.434   1.887   6.350
  275DOPC   GL2 3292  16.634   2.022   6.350
  275DOPC   C1A 3293  16.438   1.820   6.050
  275DOPC   D2A 3294  16.438   1.850   5.750
  275DOPC   C3A 3295  16.466   1.861   5.450
  275DOPC   C4A 3296  16.494   1.882   5.150
  275DOPC   C1B 3297  16.717   2.081   6.050
  275DOPC   D2B 3298  16.669   2.098   5.750
  275DOPC   C3B 3299  16.740   2.137   5.450
  275DOPC   C4B 3300  16.695   2.072   5.150
  276DOPC   NC3 3301  14.248   5.622   6.950
  276DOPC   PO4 3302  14.241   5.633   6.650
  276DOPC   GL1 3303  14.316   5.596   6.350
  276DOPC   GL2 3304  14.236   5.789   6.350
  276DOPC   C1A 3305  14.318   5.685   6.050
  276DOPC   D2A 3306  14.257   5.652   5.750
  276DOPC   C3A 3307  14.316   5.604   5.450
  276DOPC   C4A 3308  14.315   5.637   5.150
  276DOPC   C1B 3309  14.286   6.016   6.050
  276DOPC   D2B 3310  14.264   5.964   5.750
  276DOPC   C3B 3311  14.273   6.015   5.450
  276DOPC   C4B 3312  14.250   6.047   5.150
  277DOPC   NC3 3313  14.160   8.197   6.950
  277DOPC   PO4 3314  14.083   8.170   6.650
  277DOPC   GL1 3315  14.078   8.204   6.350
  277DOPC   GL2 3316  14.319   8.174   6.350
  277DOPC   C1A 3317  14.076   8.174   6.050
  277DOPC   D2A 3318  14.142   8.240   5.750
  277DOPC   C3A 3319  14.139   8.189   5.450
  277DOPC   C4A 3320  14.096   8.209   5.150
  277DOPC   C1B 3321  14.471   8.100   6.050
  277DOPC   D2B 3322  14.491   8.044   5.750
  277DOPC   C3B 3323  14.410   8.104   5.450
  277DOPC   C4B 3324  14.427   8.078   5.150
  278DOPC   NC3 3325  19.040   9.820   6.950
  278DOPC   PO4 3326  19.026   9.796   6.650
  278DOPC   GL1 3327  19.045   9.828   6.350
  278DOPC   GL2 3328  18.885   9.628   6.350
  278DOPC   C1A 3329  19.047   9.862   6.050
  278DOPC   D2A 3330  19.037   9.786   5.750
  278DOPC   C3A 3331  19.018   9.765   5.450
  278DOPC   C4A 3332  18.957   9.839   5.150
  278DOPC   C1B 3333  18.770   9.537   6.050
  278DOPC   D2B 3334  18.841   9.517   5.750
  278DOPC   C3B 3335  18.844   9.523   5.450
  278DOPC   C4B 3336  18.783   9.553   5.150
  279DOPC   NC3 3337   0.586   1.849   6.950
  279DOPC   PO4 3338   0.588   1.848   6.650
  279DOPC   GL1 3339   0.534   1.868   6.350
  279DOPC   GL2 3340   0.449   1.956   6.350
  279DOPC   C1A 3341   0.548   1.851   6.050
  279DOPC   D2A 3342   0.574   1.875   5.750
  279DOPC   C3A 3343   0.534   1.855   5.450
  279DOPC   C4A 3344   0.534   1.892   5.150
  279DOPC   C1B 3345   0.286   2.107   6.050
  279DOPC   D2B 3346   0.241   2.089   5.750
  279DOPC   C3B 3347   0.257   2.026   5.450
  279DOPC   C4B 3348   0.306   2.079   5.150
  280DOPC   NC3 3349   6.639   9.468   6.950
  280DOPC   PO4 3350   6.641   9.471   6.650
  280DOPC   GL1 3351   6.655   9.522   6.350
  280DOPC   GL2 3352   6.615   9.634   6.350
  280DOPC   C1A 3353   6.690   9.459   6.050
  280DOPC   D2A 3354   6.628   9.490   5.750
  280DOPC   C3A 3355   6.640   9.539   5.450
  280DOPC   C4A 3356   6.690   9.508   5.150
  280DOPC   C1B 3357   6.485   9.851   6.050
  280DOPC   D2B 3358   6.532   9.819   5.750
  280DOPC   C3B 3359   6.556   9.872   5.450
  280DOPC   C4B 3360   6.563   9.854   5.150
  281DOPC   NC3 3361  14.887   0.455   6.950
  281DOPC   PO4 3362  14.865   0.455   6.650
  281DOPC   GL1 3363  14.833   0.442   6.350
  281DOPC   GL2 3364  15.020   0.449   6.350
  281DOPC   C1A 3365  14.874   0.499   6.050
  281DOPC   D2A 3366  14.889   0.491   5.750
  281DOPC   C3A 3367  14.871   0.428   5.450
  281DOPC   C4A 3368  14.875   0.467   5.150
  281DOPC   C1B 3369  15.259   0.398   6.050
  281DOPC   D2B 3370  15.227   0.441   5.750
  281DOPC   C3B 3371  15.223   0.412   5.450
  281DOPC   C4B 3372  15.183   0.359   5.150
  282DOPC   NC3 3373   1.213   4.087   6.950
  282DOPC   PO4 3374   1.188   4.058   6.650
  282DOPC   GL1 3375   1.219   4.140   6.350
  282DOPC   GL2 3376   1.222   4.316   6.350
  282DOPC   C1A 3377   1.252   4.132   6.050
  282DOPC   D2A 3378   1.222   4.089   5.750
  282DOPC   C3A 3379   1.263   4.101   5.450
  282DOPC   C4A 3380   1.233   4.060   5.150
  282DOPC   C1B 3381   1.151   4.490   6.050
  282DOPC   D2B 3382   1.141   4.474   5.750
  282DOPC   C3B 3383   1.154   4.488   5.450
  282DOPC   C4B 3384   1.148   4.434   5.150
  283DOPC   NC3 3385  17.298   4.142   6.950
  283DOPC   PO4 3386  17.352   4.118   6.650
  283DOPC   GL1 3387  17.355   4.092   6.350
  283DOPC   GL2 3388  17.334   4.260   6.350
  283DOPC   C1A 3389  17.259   4.073   6.050
  283DOPC   D2A 3390  17.331   4.115   5.750
  283DOPC   C3A 3391  17.278   4.143   5.450
  283DOPC   C4A 3392  17.292   4.077   5.150
  283DOPC   C1B 3393  17.402   4.446   6.050
  283DOPC   D2B 3394  17.409   4.406   5.750
  283DOPC   C3B 3395  17.439   4.464   5.450
  283DOPC   C4B 3396  17.422   4.487   5.150
  284DOPC   NC3 3397   7.285   7.170   6.950
  284DOPC   PO4 3398   7.207   7.215   6.650
  284DOPC   GL1 3399   7.210   7.183   6.350
  284DOPC   GL2 3400   7.331   7.355   6.350
  284DOPC   C1A 3401   7.291   7.188   6.050
  284DOPC   D2A 3402   7.263   7.215   5.750
  284DOPC   C3A 3403   7.289   7.259   5.450
  284DOPC   C4A 3404   7.271   7.176   5.150
  284DOPC   C1B 3405   7.511   7.499   6.050
  284DOPC   D2B 3406   7.447   7.473   5.750
  284DOPC   C3B 3407   7.437   7.451   5.450
  284DOPC   C4B 3408   7.504   7.529   5.150
  285DOPC   NC3 3409  15.949   9.808   6.950
  285DOPC   PO4 3410  15.929   9.815   6.650
  285DOPC   GL1 3411  15.963   9.771   6.350
  285DOPC   GL2 3412  15.863   9.637   6.350
  285DOPC   C1A 3413  15.997   9.752   6.050
  285DOPC   D2A 3414  15.976   9.786   5.750
  285DOPC   C3A 3415  15.975   9.766   5.450
  285DOPC   C4A 3416  15.919   9.756   5.150
  285DOPC   C1B 3417  15.694   9.564   6.050
  285DOPC   D2B 3418  15.652   9.536   5.750
  285DOPC   C3B 3419  15.680   9.602   5.450
  285DOPC   C4B 3420  15.659   9.524   5.150
  286DOPC   NC3 3421  12.058   7.484   6.950
  286DOPC   PO4 3422  12.061   7.471   6.650
  286DOPC   GL1 3423  12.093   7.452   6.350
  286DOPC   GL2 3424  11.993   7.319   6.350
  286DOPC   C1A 3425  12.126   7.524   6.050
  286DOPC   D2A 3426  12.146   7.481   5.750
  286DOPC   C3A 3427  12.137   7.518   5.450
  286DOPC   C4A 3428  12.057   7.458   5.150
  286DOPC   C1B 3429  11.868   7.207   6.050
  286DOPC   D2B 3430  11.797   7.200   5.750
  286DOPC   C3B 3431  11.821   7.223   5.450
  286DOPC   C4B 3432  11.884   7.268   5.150
  287DOPC   NC3 3433   0.661   4.209   6.950
  287DOPC   PO4 3434   0.588   4.286   6.650
  287DOPC   GL1 3435   0.567   4.300   6.350
  287DOPC   GL2 3436   0.390   4.272   6.350
  287DOPC   C1A 3437   0.651   4.299   6.050
  287DOPC   D2A 3438   0.635   4.217   5.750
  287DOPC   C3A 3439   0.576   4.262   5.450
  287DOPC   C4A 3440   0.625   4.204   5.150
  287DOPC   C1B 3441   0.259   4.277   6.050
  287DOPC   D2B 3442   0.269   4.328   5.750
  287DOPC   C3B 3443   0.248   4.276   5.450
  287DOPC   C4B 3444   0.250   4.324   5.150
  288DOPC   NC3 3445  11.313   3.643   6.950
  288DOPC   PO4 3446  11.339   3.633   6.650
  288DOPC   GL1 3447  11.360   3.637   6.350
  288DOPC   GL2 3448  11.204   3.495   6.350
  288DOPC   C1A 3449  11.365   3.645   6.050
  288DOPC   D2A 3450  11.300   3.628   5.750
  288DOPC   C3A 3451  11.297   3.601   5.450
  288DOPC   C4A 3452  11.339   3.595   5.150
  288DOPC   C1B 3453  11.094   3.374   6.050
  288DOPC   D2B 3454  11.021   3.365   5.750
  288DOPC   C3B 3455  11.030   3.439   5.450
  288DOPC   C4B 3456  11.093   3.439   5.150
  289DOPC   NC3 3457  13.541   6.016   6.950
  289DOPC   PO4 3458  13.588   5.942   6.650
  289DOPC   GL1 3459  13.557   5.961   6.350
  289DOPC   GL2 3460  13.496   5.795   6.350
  289DOPC   C1A 3461  13.601   5.998   6.050
  289DOPC   D2A 3462  13.580   6.006   5.750
  289DOPC   C3A 3463  13.544   5.997   5.450
  289DOPC   C4A 3464  13.529   5.996   5.150
  289DOPC   C1B 3465  13.441   5.637   6.050
  289DOPC   D2B 3466  13.470   5.662   5.750
  289DOPC   C3B 3467  13.448   5.683   5.450
  289DOPC   C4B 3468  13.432   5.674   5.150
  290DOPC   NC3 3469  18.725   7.397   6.950
  290DOPC   PO4 3470  18.696   7.425   6.650
  290DOPC   GL1 3471  18.771   7.423   6.350
  290DOPC   GL2 3472  18.861   7.367   6.350
  290DOPC   C1A 3473  18.726   7.380   6.050
  290DOPC   D2A 3474  18.707   7.401   5.750
  290DOPC   C3A 3475  18.705   7.427   5.450
  290DOPC   C4A 3476  18.756   7.405   5.150
  290DOPC   C1B 3477  19.052   7.274   6.050
  290DOPC   D2B 3478  19.075   7.300   5.750
  290DOPC   C3B 3479  19.047   7.275   5.450
  290DOPC   C4B 3480  19.111   7.360   5.150
  291DOPC   NC3 3481   1.253   6.779   6.950
  291DOPC   PO4 3482   1.288   6.706   6.650
  291DOPC   GL1 3483   1.250   6.770   6.350
  291DOPC   GL2 3484   1.208   6.546   6.350
  291DOPC   C1A 3485   1.304   6.776   6.050
  291DOPC   D2A 3486   1.317   6.776   5.750
  291DOPC   C3A 3487   1.230   6.795   5.450
  291DOPC   C4A 3488   1.245   6.798   5.150
  291DOPC   C1B 3489   1.089   6.406   6.050
  291DOPC   D2B 3490   1.162   6.420   5.750
  291DOPC   C3B 3491   1.092   6.458   5.450
  291DOPC   C4B 3492   1.100   6.377   5.150
  292DOPC   NC3 3493  11.364   0.424   6.950
  292DOPC   PO4 3494  11.384   0.367   6.650
  292DOPC   GL1 3495  11.334   0.392   6.350
  292DOPC   GL2 3496  11.186   0.471   6.350
  292DOPC   C1A 3497  11.382   0.410   6.050
  292DOPC   D2A 3498  11.359   0.441   5.750
  292DOPC   C3A 3499  11.347   0.409   5.450
  292DOPC   C4A 3500  11.359   0.427   5.150
  292DOPC   C1B 3501  11.003   0.471   6.050
  292DOPC   D2B 3502  11.021   0.433   5.750
  292DOPC   C3B 3503  11.045   0.464   5.450
  292DOPC   C4B 3504  11.010   0.456   5.150
  293DOPC   NC3 3505  17.338   5.613   6.950
  293DOPC   PO4 3506  17.344   5.632   6.650
  293DOPC   GL1 3507  17.388   5.604   6.350
  293DOPC   GL2 3508  17.372   5.813   6.350
  293DOPC   C1A 3509  17.333   5.679   6.050
  293DOPC   D2A 3510  17.336   5.632   5.750
  293DOPC   C3A 3511  17.341   5.635   5.450
  293DOPC   C4A 3512  17.366   5.659   5.150
  293DOPC   C1B 3513  17.347   6.025   6.050
  293DOPC   D2B 3514  17.351   6.002   5.750
  293DOPC   C3B 3515  17.346   6.045   5.450
  293DOPC   C4B 3516  17.340   5.976   5.150
  294DOPC   NC3 3517   8.718   7.437   6.950
  294DOPC   PO4 3518   8.708   7.407   6.650
  294DOPC   GL1 3519   8.778   7.460   6.350
  294DOPC   GL2 3520   8.920   7.352   6.350
  294DOPC   C1A 3521   8.781   7.448   6.050
  294DOPC   D2A 3522   8.738   7.473   5.750
  294DOPC   C3A 3523   8.716   7.478   5.450
  294DOPC   C4A 3524   8.720   7.474   5.150
  294DOPC   C1B 3525   9.032   7.314   6.050
  294DOPC   D2B 3526   9.029   7.281   5.750
  294DOPC   C3B 3527   9.090   7.254   5.450
  294DOPC   C4B 3528   9.074   7.330   5.150
  295DOPC   NC3 3529  11.246   4.095   6.950
  295DOPC   PO4 3530  11.287   4.172   6.650
  295DOPC   GL1 3531  11.294   4.153   6.350
  295DOPC   GL2 3532  11.181   4.298   6.350
  295DOPC   C1A 3533  11.252   4.128   6.050
  295DOPC   D2A 3534  11.324   4.114   5.750
  295DOPC   C3A 3535  11.272   4.122   5.450
  295DOPC   C4A 3536  11.286   4.155   5.150
  295DOPC   C1B 3537  11.121   4.466   6.050
  295DOPC   D2B 3538  11.074   4.454   5.750
  295DOPC   C3B 3539  11.135   4.477   5.450
  295DOPC   C4B 3540  11.106   4.466   5.150
  296DOPC   NC3 3541   6.561   3.368   6.950
  296DOPC   PO4 3542   6.579   3.307   6.650
  296DOPC   GL1 3543   6.637   3.299   6.350
  296DOPC   GL2 3544   6.566   3.499   6.350
  296DOPC   C1A 3545   6.639   3.379   6.050
  296DOPC   D2A 3546   6.553   3.353   5.750
  296DOPC   C3A 3547   6.636   3.322   5.450
  296DOPC   C4A 3548   6.573   3.322   5.150
  296DOPC   C1B 3549   6.591   3.703   6.050
  296DOPC   D2B 3550   6.567   3.668   5.750
  296DOPC   C3B 3551   6.534   3.653   5.450
  296DOPC   C4B 3552   6.616   3.718   5.150
  297DOPC   NC3 3553   9.067   6.735   6.950
  297DOPC   PO4 3554   9.051   6.708   6.650
  297DOPC   GL1 3555   9.003   6.657   6.350
  297DOPC   GL2 3556   8.883   6.633   6.350
  297DOPC   C1A 3557   9.084   6.735   6.050
  297DOPC   D2A 3558   9.034   6.678   5.750
  297DOPC   C3A 3559   8.996   6.718   5.450
  297DOPC   C4A 3560   9.010   6.741   5.150
  297DOPC   C1B 3561   8.750   6.463   6.050
  297DOPC   D2B 3562   8.716   6.499   5.750
  297DOPC   C3B 3563   8.769   6.505   5.450
  297DOPC   C4B 3564   8.733   6.486   5.150
  298DOPC   NC3 3565  13.635   7.507   6.950
  298DOPC   PO4 3566  13.659   7.535   6.650
  298DOPC   GL1 3567  13.614   7.519   6.350
  298DOPC   GL2 3568  13.521   7.352   6.350
  298DOPC   C1A 3569  13.628   7.457   6.050
  298DOPC   D2A 3570  13.573   7.466   5.750
  298DOPC   C3A 3571  13.593   7.551   5.450
  298DOPC   C4A 3572  13.583   7.483   5.150
  298DOPC   C1B 3573  13.389   7.224   6.050
  298DOPC   D2B 3574  13.358   7.175   5.750
  298DOPC   C3B 3575  13.372   7.165   5.450
  298DOPC   C4B 3576  13.397   7.217   5.150
  299DOPC   NC3 3577   4.094   5.166   6.950
  299DOPC   PO4 3578   4.153   5.118   6.650
  299DOPC   GL1 3579   4.178   5.114   6.350
  299DOPC   GL2 3580   4.247   5.083   6.350
  299DOPC   C1A 3581   4.173   5.164   6.050
  299DOPC   D2A 3582   4.139   5.156   5.750
  299DOPC   C3A 3583   4.106   5.137   5.450
  299DOPC   C4A 3584   4.148   5.195   5.150
  299DOPC   C1B 3585   4.451   4.976   6.050
  299DOPC   D2B 3586   4.416   4.974   5.750
  299DOPC   C3B 3587   4.415   4.940   5.450
  299DOPC   C4B 3588   4.393   4.931   5.150
  300DOPC   NC3 3589   4.917   4.318   6.950
  300DOPC   PO4 3590   4.897   4.329   6.650
  300DOPC   GL1 3591   4.845   4.259   6.350
  300DOPC   GL2 3592   5.049   4.266   6.350
  300DOPC   C1A 3593   4.843   4.293   6.050
  300DOPC   D2A 3594   4.919   4.332   5.750
  300DOPC   C3A 3595   4.907   4.257   5.450
  300DOPC   C4A 3596   4.833   4.250   5.150
  300DOPC   C1B 3597   5.233   4.230   6.050
  300DOPC   D2B 3598   5.235   4.296   5.750
  300DOPC   C3B 3599   5.222   4.269   5.450
  300DOPC   C4B 3600   5.230   4.264   5.150
  301DOPC   NC3 3601  12.095   5.922   6.950
  301DOPC   PO4 3602  12.157   5.861   6.650
  301DOPC   GL1 3603  12.172   5.910   6.350
  301DOPC   GL2 3604  11.981   5.840   6.350
  301DOPC   C1A 3605  12.132   5.922   6.050
  301DOPC   D2A 3606  12.134   5.937   5.750
  301DOPC   C3A 3607  12.185   5.923   5.450
  301DOPC   C4A 3608  12.129   5.880   5.150
  301DOPC   C1B 3609  11.820   5.728   6.050
  301DOPC   D2B 3610  11.799   5.755   5.750
  301DOPC   C3B 3611  11.767   5.763   5.450
  301DOPC   C4B 3612  11.801   5.779   5.150
  302DOPC   NC3 3613   2.858   4.433   6.950
  302DOPC   PO4 3614   2.851   4.394   6.650
  302DOPC   GL1 3615   2.887   4.373   6.350
  302DOPC   GL2 3616   2.740   4.262   6.350
  302DOPC   C1A 3617   2.828   4.400   6.050
  302DOPC   D2A 3618   2.896   4.412   5.750
  302DOPC   C3A 3619   2.850   4.379   5.450
  302DOPC   C4A 3620   2.912   4.400   5.150
  302DOPC   C1B 3621   2.585   4.194   6.050
  302DOPC   D2B 3622   2.625   4.140   5.750
  302DOPC   C3B 3623   2.583   4.151   5.450
  302DOPC   C4B 3624   2.624   4.203   5.150
  303DOPC   NC3 3625   1.339   3.415   6.950
  303DOPC   PO4 3626   1.377   3.424   6.650
  303DOPC   GL1 3627   1.356   3.419   6.350
  303DOPC   GL2 3628   1.179   3.517   6.350
  303DOPC   C1A 3629   1.334   3.419   6.050
  303DOPC   D2A 3630   1.409   3.440   5.750
  303DOPC   C3A 3631   1.414   3.411   5.450
  303DOPC   C4A 3632   1.385   3.444   5.150
  303DOPC   C1B 3633   1.043   3.605   6.050
  303DOPC   D2B 3634   1.017   3.585   5.750
  303DOPC   C3B 3635   1.039   3.589   5.450
  303DOPC   C4B 3636   1.034   3.616   5.150
  304DOPC   NC3 3637  16.445   4.960   6.950
  304DOPC   PO4 3638  16.377   5.023   6.650
  304DOPC   GL1 3639  16.379   5.002   6.350
  304DOPC   GL2 3640  16.616   5.074   6.350
  304DOPC   C1A 3641  16.388   4.976   6.050
  304DOPC   D2A 3642  16.402   4.995   5.750
  304DOPC   C3A 3643  16.396   5.016   5.450
  304DOPC   C4A 3644  16.465   4.999   5.150
  304DOPC   C1B 3645  16.785   5.103   6.050
  304DOPC   D2B 3646  16.790   5.054   5.750
  304DOPC   C3B 3647  16.763   5.052   5.450
  304DOPC   C4B 3648  16.773   5.122   5.150
  305DOPC   NC3 3649   1.099   5.189   6.950
  305DOPC   PO4 3650   1.049   5.185   6.650
  305DOPC   GL1 3651   1.041   5.181   6.350
  305DOPC   GL2 3652   1.155   5.037   6.350
  305DOPC   C1A 3653   1.088   5.151   6.050
  305DOPC   D2A 3654   1.043   5.173   5.750
  305DOPC   C3A 3655   1.119   5.157   5.450
  305DOPC   C4A 3656   1.099   5.221   5.150
  305DOPC   C1B 3657   1.344   4.902   6.050
  305DOPC   D2B 3658   1.327   4.867   5.750
  305DOPC   C3B 3659   1.295   4.891   5.450
  305DOPC   C4B 3660   1.270   4.889   5.150
  306DOPC   NC3 3661  13.302   2.061   6.950
  306DOPC   PO4 3662  13.332   2.018   6.650
  306DOPC   GL1 3663  13.363   1.992   6.350
  306DOPC   GL2 3664  13.474   1.935   6.350
  306DOPC   C1A 3665  13.368   1.986   6.050
  306DOPC   D2A 3666  13.381   1.991   5.750
  306DOPC   C3A 3667  13.383   2.035   5.450
  306DOPC   C4A 3668  13.373   2.004   5.150
  306DOPC   C1B 3669  13.702   1.966   6.050
  306DOPC   D2B 3670  13.657   1.972   5.750
  306DOPC   C3B 3671  13.722   1.971   5.450
  306DOPC   C4B 3672  13.700   1.936   5.150
  307DOPC   NC3 3673  17.477   7.450   6.950
  307DOPC   PO4 3674  17.459   7.447   6.650
  307DOPC   GL1 3675  17.447   7.485   6.350
  307DOPC   GL2 3676  17.316   7.358   6.350
  307DOPC   C1A 3677  17.497   7.471   6.050
  307DOPC   D2A 3678  17.532   7.508   5.750
  307DOPC   C3A 3679  17.503   7.476   5.450
  307DOPC   C4A 3680  17.445   7.438   5.150
  307DOPC   C1B 3681  17.210   7.281   6.050
  307DOPC   D2B 3682  17.214   7.257   5.750
  307DOPC   C3B 3683  17.238   7.210   5.450
  307DOPC   C4B 3684  17.207   7.266   5.150
  308DOPC   NC3 3685   3.387   9.733   6.950
  308DOPC   PO4 3686   3.380   9.772   6.650
  308DOPC   GL1 3687   3.304   9.730   6.350
  308DOPC   GL2 3688   3.521   9.701   6.350
  308DOPC   C1A 3689   3.316   9.741   6.050
  308DOPC   D2A 3690   3.333   9.693   5.750
  308DOPC   C3A 3691   3.372   9.694   5.450
  308DOPC   C4A 3692   3.335   9.689   5.150
  308DOPC   C1B 3693   3.664   9.627   6.050
  308DOPC   D2B 3694   3.685   9.601   5.750
  308DOPC   C3B 3695   3.725   9.556   5.450
  308DOPC   C4B 3696   3.683   9.553   5.150
  309DOPC   NC3 3697  14.920   4.144   6.950
  309DOPC   PO4 3698  14.886   4.129   6.650
  309DOPC   GL1 3699  14.971   4.159   6.350
  309DOPC   GL2 3700  15.091   4.312   6.350
  309DOPC   C1A 3701  14.878   4.127   6.050
  309DOPC   D2A 3702  14.954   4.145   5.750
  309DOPC   C3A 3703  14.878   4.119   5.450
  309DOPC   C4A 3704  14.914   4.124   5.150
  309DOPC   C1B 3705  15.140   4.402   6.050
  309DOPC   D2B 3706  15.188   4.422   5.750
  309DOPC   C3B 3707  15.179   4.439   5.450
  309DOPC   C4B 3708  15.163   4.411   5.150
  310DOPC   NC3 3709   5.199   2.670   6.950
  310DOPC   PO4 3710   5.271   2.672   6.650
  310DOPC   GL1 3711   5.232   2.740   6.350
  310DOPC   GL2 3712   5.064   2.775   6.350
  310DOPC   C1A 3713   5.198   2.707   6.050
  310DOPC   D2A 3714   5.204   2.667   5.750
  310DOPC   C3A 3715   5.178   2.695   5.450
  310DOPC   C4A 3716   5.222   2.664   5.150
  310DOPC   C1B 3717   4.893   2.766   6.050
  310DOPC   D2B 3718   4.884   2.767   5.750
  310DOPC   C3B 3719   4.868   2.753   5.450
  310DOPC   C4B 3720   4.871   2.765   5.150
  311DOPC   NC3 3721  19.067   4.952   6.950
  311DOPC   PO4 3722  19.055   4.901   6.650
  311DOPC   GL1 3723  19.045   4.948   6.350
  311DOPC   GL2 3724  18.848   5.044   6.350
  311DOPC   C1A 3725  19.045   4.886   6.050
  311DOPC   D2A 3726  19.040   4.968   5.750
  311DOPC   C3A 3727  19.010   4.889   5.450
  311DOPC   C4A 3728  19.022   4.972   5.150
  311DOPC   C1B 3729  18.754   5.118   6.050
  311DOPC   D2B 3730  18.740   5.150   5.750
  311DOPC   C3B 3731  18.754   5.188   5.450
  311DOPC   C4B 3732  18.721   5.132   5.150
  312DOPC   NC3 3733  14.326   6.414   6.950
  312DOPC   PO4 3734  14.331   6.483   6.650
  312DOPC   GL1 3735  14.386   6.445   6.350
  312DOPC   GL2 3736  14.317   6.602   6.350
  312DOPC   C1A 3737  14.379   6.426   6.050
  312DOPC   D2A 3738  14.368   6.387   5.750
  312DOPC   C3A 3739  14.337   6.397   5.450
  312DOPC   C4A 3740  14.396   6.407   5.150
  312DOPC   C1B 3741  14.188   6.745   6.050
  312DOPC   D2B 3742  14.228   6.745   5.750
  312DOPC   C3B 3743  14.212   6.725   5.450
  312DOPC   C4B 3744  14.163   6.758   5.150
  313DOPC   NC3 3745   5.094   4.936   6.950
  313DOPC   PO4 3746   5.094   4.890   6.650
  313DOPC   GL1 3747   5.101   4.860   6.350
  313DOPC   GL2 3748   5.027   5.004   6.350
  313DOPC   C1A 3749   5.073   4.842   6.050
  313DOPC   D2A 3750   5.094   4.870   5.750
  313DOPC   C3A 3751   5.089   4.929   5.450
  313DOPC   C4A 3752   5.100   4.877   5.150
  313DOPC   C1B 3753   4.939   5.178   6.050
  313DOPC   D2B 3754   5.020   5.220   5.750
  313DOPC   C3B 3755   4.984   5.205   5.450
  313DOPC   C4B 3756   4.960   5.195   5.150
  314DOPC   NC3 3757   9.728   7.947   6.950
  314DOPC   PO4 3758   9.755   8.000   6.650
  314DOPC   GL1 3759   9.749   7.931   6.350
  314DOPC   GL2 3760   9.703   8.155   6.350
  314DOPC   C1A 3761   9.684   7.993   6.050
  314DOPC   D2A 3762   9.688   7.971   5.750
  314DOPC   C3A 3763   9.781   7.940   5.450
  314DOPC   C4A 3764   9.709   7.952   5.150
  314DOPC   C1B 3765   9.645   8.311   6.050
  314DOPC   D2B 3766   9.613   8.270   5.750
  314DOPC   C3B 3767   9.603   8.257   5.450
  314DOPC   C4B 3768   9.554   8.247   5.150
  315DOPC   NC3 3769  11.364   6.596   6.950
  315DOPC   PO4 3770  11.336   6.588   6.650
  315DOPC   GL1 3771  11.360   6.629   6.350
  315DOPC   GL2 3772  11.239   6.583   6.350
  315DOPC   C1A 3773  11.362   6.608   6.050
  315DOPC   D2A 3774  11.358   6.553   5.750
  315DOPC   C3A 3775  11.337   6.582   5.450
  315DOPC   C4A 3776  11.367   6.595   5.150
  315DOPC   C1B 3777  10.983   6.566   6.050
  315DOPC   D2B 3778  10.988   6.637   5.750
  315DOPC   C3B 3779  11.014   6.641   5.450
  315DOPC   C4B 3780  10.985   6.624   5.150
  316DOPC   NC3 3781  18.711   2.673   6.950
  316DOPC   PO4 3782  18.680   2.642   6.650
  316DOPC   GL1 3783  18.737   2.642   6.350
  316DOPC   GL2 3784  18.858   2.743   6.350
  316DOPC   C1A 3785  18.740   2.691   6.050
  316DOPC   D2A 3786  18.716   2.673   5.750
  316DOPC   C3A 3787  18.754   2.690   5.450
  316DOPC   C4A 3788  18.703   2.694   5.150
  316DOPC   C1B 3789  19.092   2.828   6.050
  316DOPC   D2B 3790  19.105   2.819   5.750
  316DOPC   C3B 3791  19.055   2.757   5.450
  316DOPC   C4B 3792  19.074   2.805   5.150
  317DOPC   NC3 3793  11.956   0.256   6.950
  317DOPC   PO4 3794  11.993   0.278   6.650
  317DOPC   GL1 3795  11.972   0.241   6.350
  317DOPC   GL2 3796  12.011   0.430   6.350
  317DOPC   C1A 3797  11.942   0.242   6.050
  317DOPC   D2A 3798  11.976   0.261   5.750
  317DOPC   C3A 3799  11.951   0.304   5.450
  317DOPC   C4A 3800  11.990   0.221   5.150
  317DOPC   C1B 3801  11.981   0.625   6.050
  317DOPC   D2B 3802  11.950   0.633   5.750
  317DOPC   C3B 3803  11.987   0.582   5.450
  317DOPC   C4B 3804  11.976   0.625   5.150
  318DOPC   NC3 3805  10.510   6.433   6.950
  318DOPC   PO4 3806  10.492   6.440   6.650
  318DOPC   GL1 3807  10.433   6.417   6.350
  318DOPC   GL2 3808  10.438   6.616   6.350
  318DOPC   C1A 3809  10.457   6.373   6.050
  318DOPC   D2A 3810  10.467   6.435   5.750
  318DOPC   C3A 3811  10.510   6.435   5.450
  318DOPC   C4A 3812  10.515   6.399   5.150
  318DOPC   C1B 3813  10.349   6.741   6.050
  318DOPC   D2B 3814  10.374   6.807   5.750
  318DOPC   C3B 3815  10.412   6.784   5.450
  318DOPC   C4B 3816  10.414   6.740   5.150
  319DOPC   NC3 3817  19.863   0.495   6.950
  319DOPC   PO4 3818  19.883   0.527   6.650
  319DOPC   GL1 3819  19.860   0.527   6.350
  319DOPC   GL2 3820  19.632   0.476   6.350
  319DOPC   C1A 3821  19.878   0.434   6.050
  319DOPC   D2A 3822  19.883   0.504   5.750
  319DOPC   C3A 3823  19.877   0.472   5.450
  319DOPC   C4A 3824  19.879   0.437   5.150
  319DOPC   C1B 3825  19.458   0.411   6.050
  319DOPC   D2B 3826  19.469   0.363   5.750
  319DOPC   C3B 3827  19.532   0.417   5.450
  319DOPC   C4B 3828  19.521   0.350   5.150
  320DOPC   NC3 3829  15.639   0.460   6.950
  320DOPC   PO4 3830  15.623   0.496   6.650
  320DOPC   GL1 3831  15.691   0.467   6.350
  320DOPC   GL2 3832  15.830   0.424   6.350
  320DOPC   C1A 3833  15.695   0.443   6.050
  320DOPC   D2A 3834  15.688   0.457   5.750
  320DOPC   C3A 3835  15.606   0.468   5.450
  320DOPC   C4A 3836  15.627   0.480   5.150
  320DOPC   C1B 3837  16.015   0.338   6.050
  320DOPC   D2B 3838  15.976   0.375   5.750
  320DOPC   C3B 3839  16.033   0.331   5.450
  320DOPC   C4B 3840  15.984   0.355   5.150
  321DOPC   NC3 3841  17.415   9.525   6.950
  321DOPC   PO4 3842  17.475   9.539   6.650
  321DOPC   GL1 3843  17.417   9.484   6.350
  321DOPC   GL2 3844  17.322   9.633   6.350
  321DOPC   C1A 3845  17.443   9.467   6.050
  321DOPC   D2A 3846  17.388   9.543   5.750
  321DOPC   C3A 3847  17.428   9.535   5.450
  321DOPC   C4A 3848  17.389   9.523   5.150
  321DOPC   C1B 3849  17.331   9.852   6.050
  321DOPC   D2B 3850  17.261   9.781   5.750
  321DOPC   C3B 3851  17.240   9.791   5.450
  321DOPC   C4B 3852  17.332   9.827   5.150
  322DOPC   NC3 3853   6.529   4.449   6.950
  322DOPC   PO4 3854   6.534   4.411   6.650
  322DOPC   GL1 3855   6.528   4.429   6.350
  322DOPC   GL2 3856   6.580   4.239   6.350
  322DOPC   C1A 3857   6.538   4.407   6.050
  322DOPC   D2A 3858   6.490   4.453   5.750
  322DOPC   C3A 3859   6.522   4.460   5.450
  322DOPC   C4A 3860   6.493   4.458   5.150
  322DOPC   C1B 3861   6.662   4.132   6.050
  322DOPC   D2B 3862   6.697   4.076   5.750
  322DOPC   C3B 3863   6.637   4.144   5.450
  322DOPC   C4B 3864   6.718   4.166   5.150
  323DOPC   NC3 3865  16.589   6.414   6.950
  323DOPC   PO4 3866  16.576   6.382   6.650
  323DOPC   GL1 3867  16.581   6.453   6.350
  323DOPC   GL2 3868  16.627   6.606   6.350
  323DOPC   C1A 3869  16.625   6.443   6.050
  323DOPC   D2A 3870  16.616   6.441   5.750
  323DOPC   C3A 3871  16.580   6.368   5.450
  323DOPC   C4A 3872  16.623   6.419   5.150
  323DOPC   C1B 3873  16.610   6.790   6.050
  323DOPC   D2B 3874  16.581   6.784   5.750
  323DOPC   C3B 3875  16.599   6.810   5.450
  323DOPC   C4B 3876  16.599   6.760   5.150
  324DOPC   NC3 3877   7.202   8.230   6.950
  324DOPC   PO4 3878   7.179   8.197   6.650
  324DOPC   GL1 3879   7.175   8.224   6.350
  324DOPC   GL2 3880   7.311   8.117   6.350
  324DOPC   C1A 3881   7.208   8.212   6.050
  324DOPC   D2A 3882   7.203   8.243   5.750
  324DOPC   C3A 3883   7.217   8.173   5.450
  324DOPC   C4A 3884   7.194   8.235   5.150
  324DOPC   C1B 3885   7.484   8.076   6.050
  324DOPC   D2B 3886   7.499   8.032   5.750
  324DOPC   C3B 3887   7.539   8.079   5.450
  324DOPC   C4B 3888   7.486   8.050   5.150
  325DOPC   NC3 3889   7.290   1.024   6.950
  325DOPC   PO4 3890   7.253   1.045   6.650
  325DOPC   GL1 3891   7.259   1.026   6.350
  325DOPC   GL2 3892   7.365   1.248   6.350
  325DOPC   C1A 3893   7.243   1.086   6.050
  325DOPC   D2A 3894   7.289   1.028   5.750
  325DOPC   C3A 3895   7.293   1.091   5.450
  325DOPC   C4A 3896   7.291   1.060   5.150
  325DOPC   C1B 3897   7.479   1.325   6.050
  325DOPC   D2B 3898   7.386   1.369   5.750
  325DOPC   C3B 3899   7.455   1.386   5.450
  325DOPC   C4B 3900   7.416   1.382   5.150
  326DOPC   NC3 3901  16.772   0.363   6.950
  326DOPC   PO4 3902  16.729   0.370   6.650
  326DOPC   GL1 3903  16.702   0.351   6.350
  326DOPC   GL2 3904  16.565   0.452   6.350
  326DOPC   C1A 3905  16.761   0.324   6.050
  326DOPC   D2A 3906  16.694   0.378   5.750
  326DOPC   C3A 3907  16.708   0.299   5.450
  326DOPC   C4A 3908  16.717   0.290   5.150
  326DOPC   C1B 3909  16.447   0.579   6.050
  326DOPC   D2B 3910  16.402   0.516   5.750
  326DOPC   C3B 3911  16.413   0.580   5.450
  326DOPC   C4B 3912  16.411   0.532   5.150
  327DOPC   NC3 3913  10.250   1.945   6.950
  327DOPC   PO4 3914  10.211   1.989   6.650
  327DOPC   GL1 3915  10.260   1.911   6.350
  327DOPC   GL2 3916  10.402   1.969   6.350
  327DOPC   C1A 3917  10.276   1.920   6.050
  327DOPC   D2A 3918  10.244   1.988   5.750
  327DOPC   C3A 3919  10.304   1.905   5.450
  327DOPC   C4A 3920  10.242   1.988   5.150
  327DOPC   C1B 3921  10.570   2.025   6.050
  327DOPC   D2B 3922  10.564   2.031   5.750
  327DOPC   C3B 3923  10.618   2.051   5.450
  327DOPC   C4B 3924  10.598   1.991   5.150
  328DOPC   NC3 3925   1.036   7.332   6.950
  328DOPC   PO4 3926   1.047   7.393   6.650
  328DOPC   GL1 3927   0.991   7.375   6.350
  328DOPC   GL2 3928   1.216   7.340   6.350
  328DOPC   C1A 3929   1.045   7.372   6.050
  328DOPC   D2A 3930   0.997   7.403   5.750
  328DOPC   C3A 3931   1.057   7.413   5.450
  328DOPC   C4A 3932   1.016   7.413   5.150
  328DOPC   C1B 3933   1.411   7.347   6.050
  328DOPC   D2B 3934   1.360   7.361   5.750
  328DOPC   C3B 3935   1.340   7.341   5.450
  328DOPC   C4B 3936   1.428   7.334   5.150
  329DOPC   NC3 3937   9.050   3.649   6.950
  329DOPC   PO4 3938   9.011   3.630   6.650
  329DOPC   GL1 3939   9.034   3.597   6.350
  329DOPC   GL2 3940   8.926   3.525   6.350
  329DOPC   C1A 3941   8.977   3.623   6.050
  329DOPC   D2A 3942   8.995   3.630   5.750
  329DOPC   C3A 3943   9.010   3.638   5.450
  329DOPC   C4A 3944   9.055   3.647   5.150
  329DOPC   C1B 3945   8.813   3.360   6.050
  329DOPC   D2B 3946   8.775   3.346   5.750
  329DOPC   C3B 3947   8.759   3.426   5.450
  329DOPC   C4B 3948   8.775   3.407   5.150
  330DOPC   NC3 3949   7.485   3.505   6.950
  330DOPC   PO4 3950   7.502   3.465   6.650
  330DOPC   GL1 3951   7.546   3.420   6.350
  330DOPC   GL2 3952   7.346   3.502   6.350
  330DOPC   C1A 3953   7.552   3.475   6.050
  330DOPC   D2A 3954   7.528   3.495   5.750
  330DOPC   C3A 3955   7.498   3.498   5.450
  330DOPC   C4A 3956   7.485   3.431   5.150
  330DOPC   C1B 3957   7.191   3.538   6.050
  330DOPC   D2B 3958   7.144   3.603   5.750
  330DOPC   C3B 3959   7.177   3.604   5.450
  330DOPC   C4B 3960   7.231   3.539   5.150
  331DOPC   NC3 3961  19.017   1.839   6.950
  331DOPC   PO4 3962  19.010   1.799   6.650
  331DOPC   GL1 3963  19.059   1.884   6.350
  331DOPC   GL2 3964  18.921   2.004   6.350
  331DOPC   C1A 3965  18.982   1.851   6.050
  331DOPC   D2A 3966  18.988   1.897   5.750
  331DOPC   C3A 3967  19.044   1.897   5.450
  331DOPC   C4A 3968  19.068   1.883   5.150
  331DOPC   C1B 3969  18.816   2.124   6.050
  331DOPC   D2B 3970  18.731   2.110   5.750
  331DOPC   C3B 3971  18.795   2.049   5.450
  331DOPC   C4B 3972  18.794   2.141   5.150
  332DOPC   NC3 3973   8.220   5.976   6.950
  332DOPC   PO4 3974   8.234   5.936   6.650
  332DOPC   GL1 3975   8.239   5.941   6.350
  332DOPC   GL2 3976   8.095   5.829   6.350
  332DOPC   C1A 3977   8.235   6.013   6.050
  332DOPC   D2A 3978   8.189   5.937   5.750
  332DOPC   C3A 3979   8.244   6.010   5.450
  332DOPC   C4A 3980   8.195   5.990   5.150
  332DOPC   C1B 3981   8.043   5.627   6.050
  332DOPC   D2B 3982   8.046   5.692   5.750
  332DOPC   C3B 3983   7.993   5.656   5.450
  332DOPC   C4B 3984   8.006   5.700   5.150
  333DOPC   NC3 3985  19.800   1.259   6.950
  333DOPC   PO4 3986  19.868   1.193   6.650
  333DOPC   GL1 3987  19.831   1.267   6.350
  333DOPC   GL2 3988  19.653   1.164   6.350
  333DOPC   C1A 3989  19.799   1.279   6.050
  333DOPC   D2A 3990  19.855   1.212   5.750
  333DOPC   C3A 3991  19.890   1.252   5.450
  333DOPC   C4A 3992  19.834   1.212   5.150
  333DOPC   C1B 3993  19.494   1.195   6.050
  333DOPC   D2B 3994  19.497   1.175   5.750
  333DOPC   C3B 3995  19.484   1.207   5.450
  333DOPC   C4B 3996  19.538   1.216   5.150
  334DOPC   NC3 3997   0.272   3.512   6.950
  334DOPC   PO4 3998   0.293   3.544   6.650
  334DOPC   GL1 3999   0.309   3.606   6.350
  334DOPC   GL2 4000   0.414   3.497   6.350
  334DOPC   C1A 4001   0.285   3.542   6.050
  334DOPC   D2A 4002   0.229   3.541   5.750
  334DOPC   C3A 4003   0.262   3.586   5.450
  334DOPC   C4A 4004   0.213   3.609   5.150
  334DOPC   C1B 4005   0.616   3.512   6.050
  334DOPC   D2B 4006   0.602   3.422   5.750
  334DOPC   C3B 4007   0.602   3.472   5.450
  334DOPC   C4B 4008   0.581   3.468   5.150
  335PF10C   C1 4009   3.321   8.027   7.850
  335PF10C   F2 4010   3.625   8.241   7.550
  335PF10C   F3 4011   3.320   7.985   7.250
  335PF10C   F4 4012   3.706   8.226   6.950
  335PF10C   F5 4013   3.400   8.014   6.650
  335PF10C   F6 4014   3.629   8.248   6.350
  335PF10C   F7 4015   3.343   8.062   6.050
  335PF10C   F8 4016   3.643   8.195   5.750
  335PF10C   F9 4017   3.341   8.054   5.450
  335PF10C  F10 4018   3.390   8.018   5.150
  336PF10C   C1 4019   9.550   1.883   7.850
  336PF10C   F2 4020   9.781   2.141   7.550
  336PF10C   F3 4021   9.523   1.864   7.250
  336PF10C   F4 4022   9.832   2.102   6.950
  336PF10C   F5 4023   9.541   1.891   6.650
  336PF10C   F6 4024   9.836   2.057   6.350
  336PF10C   F7 4025   9.528   1.880   6.050
  336PF10C   F8 4026   9.811   2.148   5.750
  336PF10C   F9 4027   9.562   1.834   5.450
  336PF10C  F10 4028   9.502   1.889   5.150
  337PF10C   C1 4029  16.442   4.255   7.850
  337PF10C   F2 4030  16.720   4.299   7.550
  337PF10C   F3 4031  16.366   4.308   7.250
  337PF10C   F4 4032  16.773   4.224   6.950
  337PF10C   F5 4033  16.378   4.340   6.650
  337PF10C   F6 4034  16.772   4.227   6.350
  337PF10C   F7 4035  16.420   4.334   6.050
  337PF10C   F8 4036  16.798   4.277   5.750
  337PF10C   F9 4037  16.397   4.316   5.450
  337PF10C  F10 4038  16.371   4.339   5.150
  338DOPC   NC3 4039  11.400   3.540   3.050
  338DOPC   PO4 4040  11.366   3.614   3.350
  338DOPC   GL1 4041  11.363   3.612   3.650
  338DOPC   GL2 4042  11.163   3.487   3.650
  338DOPC   C1A 4043  11.354   3.564   3.950
  338DOPC   D2A 4044  11.401   3.541   4.250
  338DOPC   C3A 4045  11.361   3.563   4.550
  338DOPC   C4A 4046  11.389   3.604   4.850
  338DOPC   C1B 4047  10.987   3.416   3.950
  338DOPC   D2B 4048  11.045   3.417   4.250
  338DOPC   C3B 4049  10.998   3.483   4.550
  338DOPC   C4B 4050  11.059   3.490   4.850
  339DOPC   NC3 4051   7.958   6.676   3.050
  339DOPC   PO4 4052   7.953   6.675   3.350
  339DOPC   GL1 4053   7.943   6.627   3.650
  339DOPC   GL2 4054   8.138   6.583   3.650
  339DOPC   C1A 4055   7.923   6.610   3.950
  339DOPC   D2A 4056   7.938   6.708   4.250
  339DOPC   C3A 4057   7.991   6.647   4.550
  339DOPC   C4A 4058   7.998   6.613   4.850
  339DOPC   C1B 4059   8.298   6.496   3.950
  339DOPC   D2B 4060   8.253   6.500   4.250
  339DOPC   C3B 4061   8.334   6.536   4.550
  339DOPC   C4B 4062   8.337   6.523   4.850
  340DOPC   NC3 4063  12.518   2.725   3.050
  340DOPC   PO4 4064  12.590   2.760   3.350
  340DOPC   GL1 4065  12.593   2.713   3.650
  340DOPC   GL2 4066  12.743   2.776   3.650
  340DOPC   C1A 4067  12.585   2.753   3.950
  340DOPC   D2A 4068  12.594   2.705   4.250
  340DOPC   C3A 4069  12.525   2.743   4.550
  340DOPC   C4A 4070  12.568   2.707   4.850
  340DOPC   C1B 4071  12.942   2.714   3.950
  340DOPC   D2B 4072  12.916   2.712   4.250
  340DOPC   C3B 4073  12.900   2.741   4.550
  340DOPC   C4B 4074  12.899   2.768   4.850
  341DOPC   NC3 4075  10.260   5.059   3.050
  341DOPC   PO4 4076  10.234   5.063   3.350
  341DOPC   GL1 4077  10.217   5.119   3.650
  341DOPC   GL2 4078  10.451   5.096   3.650
  341DOPC   C1A 4079  10.275   5.083   3.950
  341DOPC   D2A 4080  10.307   5.068   4.250
  341DOPC   C3A 4081  10.229   5.075   4.550
  341DOPC   C4A 4082  10.251   5.091   4.850
  341DOPC   C1B 4083  10.567   4.996   3.950
  341DOPC   D2B 4084  10.607   5.035   4.250
  341DOPC   C3B 4085  10.614   5.044   4.550
  341DOPC   C4B 4086  10.646   5.034   4.850
  342DOPC   NC3 4087  13.517   0.217   3.050
  342DOPC   PO4 4088  13.548   0.283   3.350
  342DOPC   GL1 4089  13.491   0.268   3.650
  342DOPC   GL2 4090  13.522   0.444   3.650
  342DOPC   C1A 4091  13.525   0.236   3.950
  342DOPC   D2A 4092  13.466   0.303   4.250
  342DOPC   C3A 4093  13.482   0.235   4.550
  342DOPC   C4A 4094  13.503   0.226   4.850
  342DOPC   C1B 4095  13.477   0.575   3.950
  342DOPC   D2B 4096  13.505   0.579   4.250
  342DOPC   C3B 4097  13.476   0.646   4.550
  342DOPC   C4B 4098  13.546   0.624   4.850
  343DOPC   NC3 4099  17.206   8.062   3.050
  343DOPC   PO4 4100  17.135   8.057   3.350
  343DOPC   GL1 4101  17.178   8.063   3.650
  343DOPC   GL2 4102  17.318   8.119   3.650
  343DOPC   C1A 4103  17.224   8.099   3.950
  343DOPC   D2A 4104  17.222   8.118   4.250
  343DOPC   C3A 4105  17.201   8.066   4.550
  343DOPC   C4A 4106  17.181   8.045   4.850
  343DOPC   C1B 4107  17.503   8.182   3.950
  343DOPC   D2B 4108  17.517   8.134   4.250
  343DOPC   C3B 4109  17.574   8.121   4.550
  343DOPC   C4B 4110  17.551   8.195   4.850
  344DOPC   NC3 4111  19.804   5.166   3.050
  344DOPC   PO4 4112  19.738   5.227   3.350
  344DOPC   GL1 4113  19.756   5.195   3.650
  344DOPC   GL2 4114  19.702   5.055   3.650
  344DOPC   C1A 4115  19.724   5.229   3.950
  344DOPC   D2A 4116  19.726   5.218   4.250
  344DOPC   C3A 4117  19.773   5.173   4.550
  344DOPC   C4A 4118  19.802   5.170   4.850
  344DOPC   C1B 4119  19.576   4.938   3.950
  344DOPC   D2B 4120  19.551   4.928   4.250
  344DOPC   C3B 4121  19.613   4.914   4.550
  344DOPC   C4B 4122  19.551   4.932   4.850
  345DOPC   NC3 4123  19.030   4.175   3.050
  345DOPC   PO4 4124  19.055   4.120   3.350
  345DOPC   GL1 4125  18.975   4.189   3.650
  345DOPC   GL2 4126  18.895   4.273   3.650
  345DOPC   C1A 4127  19.023   4.192   3.950
  345DOPC   D2A 4128  18.998   4.096   4.250
  345DOPC   C3A 4129  19.043   4.162   4.550
  345DOPC   C4A 4130  19.038   4.102   4.850
  345DOPC   C1B 4131  18.750   4.408   3.950
  345DOPC   D2B 4132  18.734   4.371   4.250
  345DOPC   C3B 4133  18.737   4.395   4.550
  345DOPC   C4B 4134  18.772   4.373   4.850
  346DOPC   NC3 4135   6.425   2.840   3.050
  346DOPC   PO4 4136   6.467   2.922   3.350
  346DOPC   GL1 4137   6.443   2.903   3.650
  346DOPC   GL2 4138   6.552   2.776   3.650
  346DOPC   C1A 4139   6.451   2.902   3.950
  346DOPC   D2A 4140   6.420   2.908   4.250
  346DOPC   C3A 4141   6.461   2.899   4.550
  346DOPC   C4A 4142   6.482   2.916   4.850
  346DOPC   C1B 4143   6.724   2.623   3.950
  346DOPC   D2B 4144   6.722   2.591   4.250
  346DOPC   C3B 4145   6.679   2.624   4.550
  346DOPC   C4B 4146   6.678   2.574   4.850
  347DOPC   NC3 4147   0.391   7.157   3.050
  347DOPC   PO4 4148   0.401   7.224   3.350
  347DOPC   GL1 4149   0.400   7.193   3.650
  347DOPC   GL2 4150   0.389   7.353   3.650
  347DOPC   C1A 4151   0.410   7.160   3.950
  347DOPC   D2A 4152   0.433   7.146   4.250
  347DOPC   C3A 4153   0.405   7.148   4.550
  347DOPC   C4A 4154   0.404   7.165   4.850
  347DOPC   C1B 4155   0.480   7.522   3.950
  347DOPC   D2B 4156   0.435   7.489   4.250
  347DOPC   C3B 4157   0.458   7.561   4.550
  347DOPC   C4B 4158   0.489   7.579   4.850
  348DOPC   NC3 4159  15.845   9.041   3.050
  348DOPC   PO4 4160  15.811   9.057   3.350
  348DOPC   GL1 4161  15.774   9.107   3.650
  348DOPC   GL2 4162  15.828   8.919   3.650
  348DOPC   C1A 4163  15.806   9.032   3.950
  348DOPC   D2A 4164  15.779   9.108   4.250
  348DOPC   C3A 4165  15.799   9.094   4.550
  348DOPC   C4A 4166  15.798   9.072   4.850
  348DOPC   C1B 4167  15.886   8.686   3.950
  348DOPC   D2B 4168  15.859   8.675   4.250
  348DOPC   C3B 4169  15.802   8.764   4.550
  348DOPC   C4B 4170  15.842   8.670   4.850
  349DOPC   NC3 4171   0.364   4.399   3.050
  349DOPC   PO4 4172   0.295   4.451   3.350
  349DOPC   GL1 4173   0.329   4.469   3.650
  349DOPC   GL2 4174   0.437   4.324   3.650
  349DOPC   C1A 4175   0.277   4.413   3.950
  349DOPC   D2A 4176   0.348   4.447   4.250
  349DOPC   C3A 4177   0.314   4.423   4.550
  349DOPC   C4A 4178   0.276   4.438   4.850
  349DOPC   C1B 4179   0.547   4.098   3.950
  349DOPC   D2B 4180   0.564   4.115   4.250
  349DOPC   C3B 4181   0.536   4.168   4.550
  349DOPC   C4B 4182   0.503   4.176   4.850
  350DOPC   NC3 4183   6.465   4.972   3.050
  350DOPC   PO4 4184   6.447   4.937   3.350
  350DOPC   GL1 4185   6.457   4.962   3.650
  350DOPC   GL2 4186   6.601   5.085   3.650
  350DOPC   C1A 4187   6.439   4.953   3.950
  350DOPC   D2A 4188   6.429   4.920   4.250
  350DOPC   C3A 4189   6.421   4.949   4.550
  350DOPC   C4A 4190   6.436   4.881   4.850
  350DOPC   C1B 4191   6.675   5.140   3.950
  350DOPC   D2B 4192   6.703   5.165   4.250
  350DOPC   C3B 4193   6.669   5.189   4.550
  350DOPC   C4B 4194   6.738   5.176   4.850
  351DOPC   NC3 4195  19.067   5.026   3.050
  351DOPC   PO4 4196  19.073   4.958   3.350
  351DOPC   GL1 4197  19.081   4.953   3.650
  351DOPC   GL2 4198  18.859   5.094   3.650
  351DOPC   C1A 4199  19.109   4.946   3.950
  351DOPC   D2A 4200  19.027   5.017   4.250
  351DOPC   C3A 4201  19.110   4.943   4.550
  351DOPC   C4A 4202  19.017   4.971   4.850
  351DOPC   C1B 4203  18.726   5.145   3.950
  351DOPC   D2B 4204  18.717   5.126   4.250
  351DOPC   C3B 4205  18.772   5.125   4.550
  351DOPC   C4B 4206  18.715   5.156   4.850
  352DOPC   NC3 4207  17.183   8.831   3.050
  352DOPC   PO4 4208  17.192   8.823   3.350
  352DOPC   GL1 4209  17.212   8.788   3.650
  352DOPC   GL2 4210  17.366   8.930   3.650
  352DOPC   C1A 4211  17.242   8.758   3.950
  352DOPC   D2A 4212  17.197   8.759   4.250
  352DOPC   C3A 4213  17.233   8.818   4.550
  352DOPC   C4A 4214  17.241   8.828   4.850
  352DOPC   C1B 4215  17.514   9.032   3.950
  352DOPC   D2B 4216  17.516   9.015   4.250
  352DOPC   C3B 4217  17.546   9.004   4.550
  352DOPC   C4B 4218  17.546   9.053   4.850
  353DOPC   NC3 4219   1.277   5.605   3.050
  353DOPC   PO4 4220   1.261   5.628   3.350
  353DOPC   GL1 4221   1.251   5.648   3.650
  353DOPC   GL2 4222   1.237   5.832   3.650
  353DOPC   C1A 4223   1.223   5.657   3.950
  353DOPC   D2A 4224   1.290   5.690   4.250
  353DOPC   C3A 4225   1.207   5.600   4.550
  353DOPC   C4A 4226   1.269   5.610   4.850
  353DOPC   C1B 4227   1.141   5.976   3.950
  353DOPC   D2B 4228   1.171   6.017   4.250
  353DOPC   C3B 4229   1.161   5.964   4.550
  353DOPC   C4B 4230   1.189   6.022   4.850
  354DOPC   NC3 4231  12.946   3.579   3.050
  354DOPC   PO4 4232  12.904   3.603   3.350
  354DOPC   GL1 4233  12.862   3.551   3.650
  354DOPC   GL2 4234  12.709   3.481   3.650
  354DOPC   C1A 4235  12.891   3.547   3.950
  354DOPC   D2A 4236  12.930   3.548   4.250
  354DOPC   C3A 4237  12.863   3.627   4.550
  354DOPC   C4A 4238  12.923   3.580   4.850
  354DOPC   C1B 4239  12.608   3.459   3.950
  354DOPC   D2B 4240  12.564   3.477   4.250
  354DOPC   C3B 4241  12.562   3.455   4.550
  354DOPC   C4B 4242  12.600   3.431   4.850
  355DOPC   NC3 4243  19.724   0.603   3.050
  355DOPC   PO4 4244  19.738   0.611   3.350
  355DOPC   GL1 4245  19.751   0.593   3.650
  355DOPC   GL2 4246  19.621   0.408   3.650
  355DOPC   C1A 4247  19.740   0.652   3.950
  355DOPC   D2A 4248  19.660   0.574   4.250
  355DOPC   C3A 4249  19.715   0.597   4.550
  355DOPC   C4A 4250  19.707   0.644   4.850
  355DOPC   C1B 4251  19.580   0.242   3.950
  355DOPC   D2B 4252  19.643   0.232   4.250
  355DOPC   C3B 4253  19.649   0.242   4.550
  355DOPC   C4B 4254  19.642   0.267   4.850
  356DOPC   NC3 4255  13.649   1.173   3.050
  356DOPC   PO4 4256  13.633   1.167   3.350
  356DOPC   GL1 4257  13.641   1.174   3.650
  356DOPC   GL2 4258  13.470   1.155   3.650
  356DOPC   C1A 4259  13.722   1.187   3.950
  356DOPC   D2A 4260  13.655   1.089   4.250
  356DOPC   C3A 4261  13.658   1.126   4.550
  356DOPC   C4A 4262  13.696   1.174   4.850
  356DOPC   C1B 4263  13.359   1.240   3.950
  356DOPC   D2B 4264  13.384   1.276   4.250
  356DOPC   C3B 4265  13.390   1.315   4.550
  356DOPC   C4B 4266  13.313   1.269   4.850
  357DOPC   NC3 4267  16.467   7.948   3.050
  357DOPC   PO4 4268  16.487   7.973   3.350
  357DOPC   GL1 4269  16.541   7.985   3.650
  357DOPC   GL2 4270  16.613   8.172   3.650
  357DOPC   C1A 4271  16.518   7.970   3.950
  357DOPC   D2A 4272  16.518   7.973   4.250
  357DOPC   C3A 4273  16.523   7.996   4.550
  357DOPC   C4A 4274  16.474   7.982   4.850
  357DOPC   C1B 4275  16.633   8.327   3.950
  357DOPC   D2B 4276  16.696   8.255   4.250
  357DOPC   C3B 4277  16.724   8.299   4.550
  357DOPC   C4B 4278  16.663   8.258   4.850
  358DOPC   NC3 4279  18.032   2.845   3.050
  358DOPC   PO4 4280  17.996   2.886   3.350
  358DOPC   GL1 4281  17.954   2.835   3.650
  358DOPC   GL2 4282  18.117   2.736   3.650
  358DOPC   C1A 4283  17.999   2.819   3.950
  358DOPC   D2A 4284  17.993   2.831   4.250
  358DOPC   C3A 4285  17.970   2.835   4.550
  358DOPC   C4A 4286  17.975   2.862   4.850
  358DOPC   C1B 4287  18.236   2.589   3.950
  358DOPC   D2B 4288  18.315   2.589   4.250
  358DOPC   C3B 4289  18.226   2.660   4.550
  358DOPC   C4B 4290  18.268   2.615   4.850
  359DOPC   NC3 4291   3.701   1.288   3.050
  359DOPC   PO4 4292   3.631   1.262   3.350
  359DOPC   GL1 4293   3.659   1.213   3.650
  359DOPC   GL2 4294   3.468   1.181   3.650
  359DOPC   C1A 4295   3.668   1.227   3.950
  359DOPC   D2A 4296   3.647   1.288   4.250
  359DOPC   C3A 4297   3.722   1.270   4.550
  359DOPC   C4A 4298   3.708   1.227   4.850
  359DOPC   C1B 4299   3.299   1.170   3.950
  359DOPC   D2B 4300   3.326   1.146   4.250
  359DOPC   C3B 4301   3.332   1.155   4.550
  359DOPC   C4B 4302   3.331   1.160   4.850
  360DOPC   NC3 4303   5.969   1.109   3.050
  360DOPC   PO4 4304   5.943   1.110   3.350
  360DOPC   GL1 4305   5.935   1.118   3.650
  360DOPC   GL2 4306   5.869   1.168   3.650
  360DOPC   C1A 4307   5.959   1.067   3.950
  360DOPC   D2A 4308   5.951   1.048   4.250
  360DOPC   C3A 4309   5.940   1.051   4.550
  360DOPC   C4A 4310   5.983   1.099   4.850
  360DOPC   C1B 4311   5.654   1.354   3.950
  360DOPC   D2B 4312   5.729   1.326   4.250
  360DOPC   C3B 4313   5.694   1.341   4.550
  360DOPC   C4B 4314   5.748   1.295   4.850
  361DOPC   NC3 4315   3.435   1.876   3.050
  361DOPC   PO4 4316   3.404   1.813   3.350
  361DOPC   GL1 4317   3.419   1.858   3.650
  361DOPC   GL2 4318   3.496   2.020   3.650
  361DOPC   C1A 4319   3.356   1.875   3.950
  361DOPC   D2A 4320   3.350   1.863   4.250
  361DOPC   C3A 4321   3.417   1.822   4.550
  361DOPC   C4A 4322   3.389   1.880   4.850
  361DOPC   C1B 4323   3.656   2.123   3.950
  361DOPC   D2B 4324   3.617   2.077   4.250
  361DOPC   C3B 4325   3.607   2.134   4.550
  361DOPC   C4B 4326   3.604   2.080   4.850
  362DOPC   NC3 4327   3.456   9.829   3.050
  362DOPC   PO4 4328   3.496   9.856   3.350
  362DOPC   GL1 4329   3.427   9.878   3.650
  362DOPC   GL2 4330   3.535   9.624   3.650
  362DOPC   C1A 4331   3.504   9.872   3.950
  362DOPC   D2A 4332   3.435   9.864   4.250
  362DOPC   C3A 4333   3.445   9.815   4.550
  362DOPC   C4A 4334   3.491   9.846   4.850
  362DOPC   C1B 4335   3.536   9.472   3.950
  362DOPC   D2B 4336   3.518   9.527   4.250
  362DOPC   C3B 4337   3.552   9.493   4.550
  362DOPC   C4B 4338   3.570   9.451   4.850
  363DOPC   NC3 4339   1.858   5.996   3.050
  363DOPC   PO4 4340   1.896   5.949   3.350
  363DOPC   GL1 4341   1.933   5.957   3.650
  363DOPC   GL2 4342   2.020   5.845   3.650
  363DOPC   C1A 4343   1.931   5.996   3.950
  363DOPC   D2A 4344   1.883   6.025   4.250
  363DOPC   C3A 4345   1.863   6.024   4.550
  363DOPC   C4A 4346   1.944   6.006   4.850
  363DOPC   C1B 4347   1.999   5.678   3.950
  363DOPC   D2B 4348   2.035   5.643   4.250
  363DOPC   C3B 4349   2.039   5.611   4.550
  363DOPC   C4B 4350   2.070   5.605   4.850
  364DOPC   NC3 4351   1.804   2.800   3.050
  364DOPC   PO4 4352   1.754   2.738   3.350
  364DOPC   GL1 4353   1.808   2.763   3.650
  364DOPC   GL2 4354   2.006   2.723   3.650
  364DOPC   C1A 4355   1.756   2.751   3.950
  364DOPC   D2A 4356   1.827   2.804   4.250
  364DOPC   C3A 4357   1.799   2.758   4.550
  364DOPC   C4A 4358   1.815   2.815   4.850
  364DOPC   C1B 4359   2.186   2.704   3.950
  364DOPC   D2B 4360   2.108   2.733   4.250
  364DOPC   C3B 4361   2.139   2.736   4.550
  364DOPC   C4B 4362   2.158   2.671   4.850
  365DOPC   NC3 4363  11.077   6.764   3.050
  365DOPC   PO4 4364  11.135   6.737   3.350
  365DOPC   GL1 4365  11.124   6.712   3.650
  365DOPC   GL2 4366  11.193   6.597   3.650
  365DOPC   C1A 4367  11.093   6.772   3.950
  365DOPC   D2A 4368  11.120   6.736   4.250
  365DOPC   C3A 4369  11.113   6.702   4.550
  365DOPC   C4A 4370  11.068   6.775   4.850
  365DOPC   C1B 4371  11.305   6.434   3.950
  365DOPC   D2B 4372  11.350   6.432   4.250
  365DOPC   C3B 4373  11.318   6.454   4.550
  365DOPC   C4B 4374  11.328   6.459   4.850
  366DOPC   NC3 4375  17.952   1.320   3.050
  366DOPC   PO4 4376  17.945   1.271   3.350
  366DOPC   GL1 4377  18.012   1.265   3.650
  366DOPC   GL2 4378  18.077   1.181   3.650
  366DOPC   C1A 4379  17.984   1.346   3.950
  366DOPC   D2A 4380  18.024   1.280   4.250
  366DOPC   C3A 4381  17.974   1.348   4.550
  366DOPC   C4A 4382  18.005   1.277   4.850
  366DOPC   C1B 4383  18.244   1.120   3.950
  366DOPC   D2B 4384  18.272   1.060   4.250
  366DOPC   C3B 4385  18.317   1.109   4.550
  366DOPC   C4B 4386  18.288   1.133   4.850
  367DOPC   NC3 4387  14.175   5.985   3.050
  367DOPC   PO4 4388  14.192   5.963   3.350
  367DOPC   GL1 4389  14.156   5.937   3.650
  367DOPC   GL2 4390  14.325   5.818   3.650
  367DOPC   C1A 4391  14.190   5.921   3.950
  367DOPC   D2A 4392  14.170   5.929   4.250
  367DOPC   C3A 4393  14.178   5.987   4.550
  367DOPC   C4A 4394  14.113   5.983   4.850
  367DOPC   C1B 4395  14.411   5.666   3.950
  367DOPC   D2B 4396  14.421   5.715   4.250
  367DOPC   C3B 4397  14.441   5.731   4.550
  367DOPC   C4B 4398  14.379   5.727   4.850
  368DOPC   NC3 4399  15.884   5.996   3.050
  368DOPC   PO4 4400  15.910   6.016   3.350
  368DOPC   GL1 4401  15.842   6.022   3.650
  368DOPC   GL2 4402  15.827   5.846   3.650
  368DOPC   C1A 4403  15.905   6.003   3.950
  368DOPC   D2A 4404  15.911   5.997   4.250
  368DOPC   C3A 4405  15.929   5.976   4.550
  368DOPC   C4A 4406  15.936   6.000   4.850
  368DOPC   C1B 4407  15.734   5.648   3.950
  368DOPC   D2B 4408  15.753   5.669   4.250
  368DOPC   C3B 4409  15.748   5.660   4.550
  368DOPC   C4B 4410  15.766   5.610   4.850
  369DOPC   NC3 4411   2.135   4.940   3.050
  369DOPC   PO4 4412   2.093   4.923   3.350
  369DOPC   GL1 4413   2.151   4.937   3.650
  369DOPC   GL2 4414   1.972   5.053   3.650
  369DOPC   C1A 4415   2.177   4.925   3.950
  369DOPC   D2A 4416   2.149   4.966   4.250
  369DOPC   C3A 4417   2.091   4.989   4.550
  369DOPC   C4A 4418   2.145   4.924   4.850
  369DOPC   C1B 4419   1.806   5.132   3.950
  369DOPC   D2B 4420   1.841   5.176   4.250
  369DOPC   C3B 4421   1.797   5.144   4.550
  369DOPC   C4B 4422   1.852   5.109   4.850
  370DOPC   NC3 4423   2.647   2.133   3.050
  370DOPC   PO4 4424   2.697   2.120   3.350
  370DOPC   GL1 4425   2.667   2.094   3.650
  370DOPC   GL2 4426   2.748   1.924   3.650
  370DOPC   C1A 4427   2.645   2.117   3.950
  370DOPC   D2A 4428   2.705   2.096   4.250
  370DOPC   C3A 4429   2.646   2.180   4.550
  370DOPC   C4A 4430   2.668   2.136   4.850
  370DOPC   C1B 4431   2.852   1.844   3.950
  370DOPC   D2B 4432   2.848   1.804   4.250
  370DOPC   C3B 4433   2.860   1.846   4.550
  370DOPC   C4B 4434   2.802   1.786   4.850
  371DOPC   NC3 4435  17.508   3.567   3.050
  371DOPC   PO4 4436  17.540   3.643   3.350
  371DOPC   GL1 4437  17.550   3.560   3.650
  371DOPC   GL2 4438  17.390   3.552   3.650
  371DOPC   C1A 4439  17.542   3.556   3.950
  371DOPC   D2A 4440  17.494   3.551   4.250
  371DOPC   C3A 4441  17.474   3.594   4.550
  371DOPC   C4A 4442  17.546   3.552   4.850
  371DOPC   C1B 4443  17.219   3.400   3.950
  371DOPC   D2B 4444  17.235   3.416   4.250
  371DOPC   C3B 4445  17.228   3.434   4.550
  371DOPC   C4B 4446  17.159   3.391   4.850
  372DOPC   NC3 4447  18.177   1.822   3.050
  372DOPC   PO4 4448  18.108   1.805   3.350
  372DOPC   GL1 4449  18.190   1.841   3.650
  372DOPC   GL2 4450  18.160   1.934   3.650
  372DOPC   C1A 4451  18.152   1.783   3.950
  372DOPC   D2A 4452  18.104   1.776   4.250
  372DOPC   C3A 4453  18.157   1.818   4.550
  372DOPC   C4A 4454  18.177   1.787   4.850
  372DOPC   C1B 4455  18.135   2.124   3.950
  372DOPC   D2B 4456  18.127   2.126   4.250
  372DOPC   C3B 4457  18.125   2.102   4.550
  372DOPC   C4B 4458  18.128   2.119   4.850
  373DOPC   NC3 4459  11.247   7.177   3.050
  373DOPC   PO4 4460  11.246   7.169   3.350
  373DOPC   GL1 4461  11.224   7.201   3.650
  373DOPC   GL2 4462  11.198   7.360   3.650
  373DOPC   C1A 4463  11.285   7.185   3.950
  373DOPC   D2A 4464  11.295   7.157   4.250
  373DOPC   C3A 4465  11.291   7.223   4.550
  373DOPC   C4A 4466  11.296   7.197   4.850
  373DOPC   C1B 4467  11.097   7.537   3.950
  373DOPC   D2B 4468  11.087   7.514   4.250
  373DOPC   C3B 4469  11.183   7.513   4.550
  373DOPC   C4B 4470  11.183   7.500   4.850
  374DOPC   NC3 4471  19.708   5.972   3.050
  374DOPC   PO4 4472  19.713   6.044   3.350
  374DOPC   GL1 4473  19.654   5.970   3.650
  374DOPC   GL2 4474  19.692   5.771   3.650
  374DOPC   C1A 4475  19.710   6.024   3.950
  374DOPC   D2A 4476  19.641   5.948   4.250
  374DOPC   C3A 4477  19.632   6.036   4.550
  374DOPC   C4A 4478  19.656   5.980   4.850
  374DOPC   C1B 4479  19.636   5.686   3.950
  374DOPC   D2B 4480  19.670   5.610   4.250
  374DOPC   C3B 4481  19.650   5.626   4.550
  374DOPC   C4B 4482  19.623   5.676   4.850
  375DOPC   NC3 4483   8.286   7.487   3.050
  375DOPC   PO4 4484   8.214   7.462   3.350
  375DOPC   GL1 4485   8.278   7.501   3.650
  375DOPC   GL2 4486   8.080   7.309   3.650
  375DOPC   C1A 4487   8.272   7.519   3.950
  375DOPC   D2A 4488   8.288   7.447   4.250
  375DOPC   C3A 4489   8.267   7.456   4.550
  375DOPC   C4A 4490   8.212   7.499   4.850
  375DOPC   C1B 4491   7.993   7.226   3.950
  375DOPC   D2B 4492   8.001   7.241   4.250
  375DOPC   C3B 4493   7.980   7.189   4.550
  375DOPC   C4B 4494   8.044   7.211   4.850
  376DOPC   NC3 4495  14.829   0.444   3.050
  376DOPC   PO4 4496  14.887   0.426   3.350
  376DOPC   GL1 4497  14.860   0.470   3.650
  376DOPC   GL2 4498  15.021   0.408   3.650
  376DOPC   C1A 4499  14.835   0.457   3.950
  376DOPC   D2A 4500  14.882   0.452   4.250
  376DOPC   C3A 4501  14.890   0.420   4.550
  376DOPC   C4A 4502  14.823   0.477   4.850
  376DOPC   C1B 4503  15.249   0.391   3.950
  376DOPC   D2B 4504  15.184   0.466   4.250
  376DOPC   C3B 4505  15.205   0.407   4.550
  376DOPC   C4B 4506  15.248   0.455   4.850
  377DOPC   NC3 4507   3.636   5.705   3.050
  377DOPC   PO4 4508   3.637   5.712   3.350
  377DOPC   GL1 4509   3.654   5.745   3.650
  377DOPC   GL2 4510   3.513   5.862   3.650
  377DOPC   C1A 4511   3.666   5.767   3.950
  377DOPC   D2A 4512   3.662   5.742   4.250
  377DOPC   C3A 4513   3.642   5.736   4.550
  377DOPC   C4A 4514   3.693   5.698   4.850
  377DOPC   C1B 4515   3.342   5.868   3.950
  377DOPC   D2B 4516   3.358   5.956   4.250
  377DOPC   C3B 4517   3.347   5.913   4.550
  377DOPC   C4B 4518   3.334   5.891   4.850
  378DOPC   NC3 4519   3.359   2.908   3.050
  378DOPC   PO4 4520   3.359   2.898   3.350
  378DOPC   GL1 4521   3.379   2.875   3.650
  378DOPC   GL2 4522   3.498   2.728   3.650
  378DOPC   C1A 4523   3.361   2.843   3.950
  378DOPC   D2A 4524   3.331   2.843   4.250
  378DOPC   C3A 4525   3.374   2.894   4.550
  378DOPC   C4A 4526   3.395   2.880   4.850
  378DOPC   C1B 4527   3.680   2.644   3.950
  378DOPC   D2B 4528   3.638   2.623   4.250
  378DOPC   C3B 4529   3.602   2.640   4.550
  378DOPC   C4B 4530   3.690   2.670   4.850
  379DOPC   NC3 4531  16.026   7.487   3.050
  379DOPC   PO4 4532  15.956   7.403   3.350
  379DOPC   GL1 4533  16.006   7.399   3.650
  379DOPC   GL2 4534  15.834   7.402   3.650
  379DOPC   C1A 4535  15.965   7.458   3.950
  379DOPC   D2A 4536  15.942   7.429   4.250
  379DOPC   C3A 4537  16.016   7.424   4.550
  379DOPC   C4A 4538  15.933   7.467   4.850
  379DOPC   C1B 4539  15.619   7.244   3.950
  379DOPC   D2B 4540  15.633   7.257   4.250
  379DOPC   C3B 4541  15.697   7.262   4.550
  379DOPC   C4B 4542  15.697   7.253   4.850
  380DOPC   NC3 4543  11.044   4.937   3.050
  380DOPC   PO4 4544  11.116   4.958   3.350
  380DOPC   GL1 4545  11.040   4.875   3.650
  380DOPC   GL2 4546  11.159   5.036   3.650
  380DOPC   C1A 4547  11.088   4.970   3.950
  380DOPC   D2A 4548  11.124   4.904   4.250
  380DOPC   C3A 4549  11.118   4.961   4.550
  380DOPC   C4A 4550  11.036   4.946   4.850
  380DOPC   C1B 4551  11.366   5.146   3.950
  380DOPC   D2B 4552  11.356   5.137   4.250
  380DOPC   C3B 4553  11.354   5.184   4.550
  380DOPC   C4B 4554  11.315   5.149   4.850
  381DOPC   NC3 4555   8.348   8.114   3.050
  381DOPC   PO4 4556   8.345   8.056   3.350
  381DOPC   GL1 4557   8.323   8.117   3.650
  381DOPC   GL2 4558   8.096   8.123   3.650
  381DOPC   C1A 4559   8.335   8.132   3.950
  381DOPC   D2A 4560   8.293   8.087   4.250
  381DOPC   C3A 4561   8.343   8.086   4.550
  381DOPC   C4A 4562   8.314   8.074   4.850
  381DOPC   C1B 4563   7.905   8.186   3.950
  381DOPC   D2B 4564   7.905   8.140   4.250
  381DOPC   C3B 4565   7.918   8.168   4.550
  381DOPC   C4B 4566   7.941   8.192   4.850
  382DOPC   NC3 4567   8.256   9.019   3.050
  382DOPC   PO4 4568   8.306   8.972   3.350
  382DOPC   GL1 4569   8.251   8.973   3.650
  382DOPC   GL2 4570   8.159   8.898   3.650
  382DOPC   C1A 4571   8.287   8.953   3.950
  382DOPC   D2A 4572   8.233   8.992   4.250
  382DOPC   C3A 4573   8.319   8.956   4.550
  382DOPC   C4A 4574   8.328   8.971   4.850
  382DOPC   C1B 4575   7.974   8.773   3.950
  382DOPC   D2B 4576   7.945   8.848   4.250
  382DOPC   C3B 4577   8.022   8.767   4.550
  382DOPC   C4B 4578   7.993   8.850   4.850
  383DOPC   NC3 4579   1.313   3.682   3.050
  383DOPC   PO4 4580   1.346   3.686   3.350
  383DOPC   GL1 4581   1.342   3.692   3.650
  383DOPC   GL2 4582   1.227   3.491   3.650
  383DOPC   C1A 4583   1.329   3.689   3.950
  383DOPC   D2A 4584   1.343   3.694   4.250
  383DOPC   C3A 4585   1.306   3.673   4.550
  383DOPC   C4A 4586   1.284   3.609   4.850
  383DOPC   C1B 4587   1.140   3.374   3.950
  383DOPC   D2B 4588   1.141   3.323   4.250
  383DOPC   C3B 4589   1.137   3.327   4.550
  383DOPC   C4B 4590   1.117   3.409   4.850
  384DOPC   NC3 4591   4.260   5.946   3.050
  384DOPC   PO4 4592   4.220   5.976   3.350
  384DOPC   GL1 4593   4.282   6.024   3.650
  384DOPC   GL2 4594   4.234   5.854   3.650
  384DOPC   C1A 4595   4.220   5.958   3.950
  384DOPC   D2A 4596   4.205   6.030   4.250
  384DOPC   C3A 4597   4.221   6.014   4.550
  384DOPC   C4A 4598   4.281   5.965   4.850
  384DOPC   C1B 4599   4.298   5.661   3.950
  384DOPC   D2B 4600   4.366   5.598   4.250
  384DOPC   C3B 4601   4.311   5.648   4.550
  384DOPC   C4B 4602   4.318   5.597   4.850
  385DOPC   NC3 4603   7.450   4.830   3.050
  385DOPC   PO4 4604   7.386   4.866   3.350
  385DOPC   GL1 4605   7.416   4.835   3.650
  385DOPC   GL2 4606   7.395   5.042   3.650
  385DOPC   C1A 4607   7.390   4.897   3.950
  385DOPC   D2A 4608   7.447   4.895   4.250
  385DOPC   C3A 4609   7.401   4.851   4.550
  385DOPC   C4A 4610   7.434   4.894   4.850
  385DOPC   C1B 4611   7.353   5.254   3.950
  385DOPC   D2B 4612   7.293   5.258   4.250
  385DOPC   C3B 4613   7.346   5.226   4.550
  385DOPC   C4B 4614   7.308   5.250   4.850
  386DOPC   NC3 4615   1.110   2.137   3.050
  386DOPC   PO4 4616   1.064   2.063   3.350
  386DOPC   GL1 4617   1.036   2.112   3.650
  386DOPC   GL2 4618   1.188   1.954   3.650
  386DOPC   C1A 4619   1.086   2.105   3.950
  386DOPC   D2A 4620   1.046   2.068   4.250
  386DOPC   C3A 4621   1.043   2.104   4.550
  386DOPC   C4A 4622   1.128   2.065   4.850
  386DOPC   C1B 4623   1.368   1.802   3.950
  386DOPC   D2B 4624   1.370   1.813   4.250
  386DOPC   C3B 4625   1.337   1.823   4.550
  386DOPC   C4B 4626   1.280   1.826   4.850
  387DOPC   NC3 4627  11.182   8.675   3.050
  387DOPC   PO4 4628  11.265   8.697   3.350
  387DOPC   GL1 4629  11.185   8.710   3.650
  387DOPC   GL2 4630  11.215   8.925   3.650
  387DOPC   C1A 4631  11.257   8.726   3.950
  387DOPC   D2A 4632  11.222   8.690   4.250
  387DOPC   C3A 4633  11.253   8.732   4.550
  387DOPC   C4A 4634  11.262   8.696   4.850
  387DOPC   C1B 4635  11.172   9.121   3.950
  387DOPC   D2B 4636  11.177   9.053   4.250
  387DOPC   C3B 4637  11.189   9.053   4.550
  387DOPC   C4B 4638  11.203   9.060   4.850
  388DOPC   NC3 4639   5.659   7.979   3.050
  388DOPC   PO4 4640   5.708   8.056   3.350
  388DOPC   GL1 4641   5.672   7.989   3.650
  388DOPC   GL2 4642   5.814   8.102   3.650
  388DOPC   C1A 4643   5.678   7.996   3.950
  388DOPC   D2A 4644   5.703   8.051   4.250
  388DOPC   C3A 4645   5.655   8.051   4.550
  388DOPC   C4A 4646   5.660   8.032   4.850
  388DOPC   C1B 4647   5.989   8.188   3.950
  388DOPC   D2B 4648   5.990   8.216   4.250
  388DOPC   C3B 4649   6.006   8.192   4.550
  388DOPC   C4B 4650   5.944   8.264   4.850
  389DOPC   NC3 4651   8.951   1.823   3.050
  389DOPC   PO4 4652   8.885   1.793   3.350
  389DOPC   GL1 4653   8.915   1.808   3.650
  389DOPC   GL2 4654   8.874   1.957   3.650
  389DOPC   C1A 4655   8.955   1.752   3.950
  389DOPC   D2A 4656   8.980   1.785   4.250
  389DOPC   C3A 4657   8.955   1.844   4.550
  389DOPC   C4A 4658   8.935   1.792   4.850
  389DOPC   C1B 4659   8.839   2.177   3.950
  389DOPC   D2B 4660   8.900   2.179   4.250
  389DOPC   C3B 4661   8.861   2.194   4.550
  389DOPC   C4B 4662   8.848   2.110   4.850
  390DOPC   NC3 4663  18.023   5.725   3.050
  390DOPC   PO4 4664  18.035   5.685   3.350
  390DOPC   GL1 4665  18.011   5.711   3.650
  390DOPC   GL2 4666  18.141   5.788   3.650
  390DOPC   C1A 4667  18.041   5.728   3.950
  390DOPC   D2A 4668  18.015   5.656   4.250
  390DOPC   C3A 4669  18.004   5.656   4.550
  390DOPC   C4A 4670  18.018   5.720   4.850
  390DOPC   C1B 4671  18.288   5.982   3.950
  390DOPC   D2B 4672  18.269   5.912   4.250
  390DOPC   C3B 4673  18.283   5.931   4.550
  390DOPC   C4B 4674  18.286   5.945   4.850
  391DOPC   NC3 4675  19.040   6.664   3.050
  391DOPC   PO4 4676  19.068   6.625   3.350
  391DOPC   GL1 4677  19.064   6.661   3.650
  391DOPC   GL2 4678  18.847   6.575   3.650
  391DOPC   C1A 4679  19.080   6.642   3.950
  391DOPC   D2A 4680  19.021   6.630   4.250
  391DOPC   C3A 4681  19.089   6.670   4.550
  391DOPC   C4A 4682  19.032   6.651   4.850
  391DOPC   C1B 4683  18.718   6.511   3.950
  391DOPC   D2B 4684  18.730   6.502   4.250
  391DOPC   C3B 4685  18.747   6.465   4.550
  391DOPC   C4B 4686  18.712   6.536   4.850
  392DOPC   NC3 4687  18.874   9.528   3.050
  392DOPC   PO4 4688  18.804   9.504   3.350
  392DOPC   GL1 4689  18.796   9.538   3.650
  392DOPC   GL2 4690  18.910   9.715   3.650
  392DOPC   C1A 4691  18.850   9.519   3.950
  392DOPC   D2A 4692  18.879   9.466   4.250
  392DOPC   C3A 4693  18.851   9.503   4.550
  392DOPC   C4A 4694  18.834   9.478   4.850
  392DOPC   C1B 4695  18.958   9.877   3.950
  392DOPC   D2B 4696  18.994   9.843   4.250
  392DOPC   C3B 4697  18.955   9.858   4.550
  392DOPC   C4B 4698  18.925   9.854   4.850
  393DOPC   NC3 4699  14.188   1.068   3.050
  393DOPC   PO4 4700  14.229   0.997   3.350
  393DOPC   GL1 4701  14.201   1.012   3.650
  393DOPC   GL2 4702  14.284   1.193   3.650
  393DOPC   C1A 4703  14.196   1.039   3.950
  393DOPC   D2A 4704  14.238   1.060   4.250
  393DOPC   C3A 4705  14.183   0.991   4.550
  393DOPC   C4A 4706  14.271   1.001   4.850
  393DOPC   C1B 4707  14.295   1.424   3.950
  393DOPC   D2B 4708  14.296   1.344   4.250
  393DOPC   C3B 4709  14.345   1.346   4.550
  393DOPC   C4B 4710  14.312   1.372   4.850
  394DOPC   NC3 4711   1.080   4.957   3.050
  394DOPC   PO4 4712   1.079   4.990   3.350
  394DOPC   GL1 4713   1.073   5.024   3.650
  394DOPC   GL2 4714   1.247   5.016   3.650
  394DOPC   C1A 4715   1.073   4.989   3.950
  394DOPC   D2A 4716   0.992   4.947   4.250
  394DOPC   C3A 4717   1.046   4.953   4.550
  394DOPC   C4A 4718   1.079   5.005   4.850
  394DOPC   C1B 4719   1.330   5.153   3.950
  394DOPC   D2B 4720   1.321   5.103   4.250
  394DOPC   C3B 4721   1.340   5.088   4.550
  394DOPC   C4B 4722   1.408   5.160   4.850
  395DOPC   NC3 4723   2.924   2.800   3.050
  395DOPC   PO4 4724   2.932   2.832   3.350
  395DOPC   GL1 4725   2.931   2.831   3.650
  395DOPC   GL2 4726   2.750   2.722   3.650
  395DOPC   C1A 4727   2.877   2.873   3.950
  395DOPC   D2A 4728   2.931   2.863   4.250
  395DOPC   C3A 4729   2.867   2.869   4.550
  395DOPC   C4A 4730   2.896   2.859   4.850
  395DOPC   C1B 4731   2.595   2.593   3.950
  395DOPC   D2B 4732   2.608   2.611   4.250
  395DOPC   C3B 4733   2.553   2.628   4.550
  395DOPC   C4B 4734   2.608   2.601   4.850
  396DOPC   NC3 4735   6.406   9.624   3.050
  396DOPC   PO4 4736   6.394   9.638   3.350
  396DOPC   GL1 4737   6.447   9.677   3.650
  396DOPC   GL2 4738   6.630   9.682   3.650
  396DOPC   C1A 4739   6.370   9.659   3.950
  396DOPC   D2A 4740   6.442   9.606   4.250
  396DOPC   C3A 4741   6.388   9.597   4.550
  396DOPC   C4A 4742   6.427   9.620   4.850
  396DOPC   C1B 4743   6.743   9.708   3.950
  396DOPC   D2B 4744   6.812   9.702   4.250
  396DOPC   C3B 4745   6.809   9.692   4.550
  396DOPC   C4B 4746   6.774   9.731   4.850
  397DOPC   NC3 4747   4.471   0.458   3.050
  397DOPC   PO4 4748   4.413   0.418   3.350
  397DOPC   GL1 4749   4.441   0.436   3.650
  397DOPC   GL2 4750   4.271   0.454   3.650
  397DOPC   C1A 4751   4.499   0.450   3.950
  397DOPC   D2A 4752   4.483   0.444   4.250
  397DOPC   C3A 4753   4.464   0.459   4.550
  397DOPC   C4A 4754   4.427   0.452   4.850
  397DOPC   C1B 4755   4.089   0.462   3.950
  397DOPC   D2B 4756   4.092   0.458   4.250
  397DOPC   C3B 4757   4.138   0.469   4.550
  397DOPC   C4B 4758   4.136   0.443   4.850
  398DOPC   NC3 4759  14.236   2.943   3.050
  398DOPC   PO4 4760  14.164   2.873   3.350
  398DOPC   GL1 4761  14.155   2.916   3.650
  398DOPC   GL2 4762  14.321   2.739   3.650
  398DOPC   C1A 4763  14.145   2.867   3.950
  398DOPC   D2A 4764  14.233   2.890   4.250
  398DOPC   C3A 4765  14.200   2.931   4.550
  398DOPC   C4A 4766  14.236   2.936   4.850
  398DOPC   C1B 4767  14.414   2.611   3.950
  398DOPC   D2B 4768  14.404   2.623   4.250
  398DOPC   C3B 4769  14.415   2.556   4.550
  398DOPC   C4B 4770  14.343   2.588   4.850
  399DOPC   NC3 4771  12.760   4.115   3.050
  399DOPC   PO4 4772  12.769   4.082   3.350
  399DOPC   GL1 4773  12.719   4.110   3.650
  399DOPC   GL2 4774  12.746   4.281   3.650
  399DOPC   C1A 4775  12.720   4.145   3.950
  399DOPC   D2A 4776  12.724   4.129   4.250
  399DOPC   C3A 4777  12.760   4.087   4.550
  399DOPC   C4A 4778  12.799   4.104   4.850
  399DOPC   C1B 4779  12.699   4.455   3.950
  399DOPC   D2B 4780  12.763   4.434   4.250
  399DOPC   C3B 4781  12.697   4.426   4.550
  399DOPC   C4B 4782  12.764   4.474   4.850
  400DOPC   NC3 4783  12.875   5.105   3.050
  400DOPC   PO4 4784  12.883   5.138   3.350
  400DOPC   GL1 4785  12.905   5.156   3.650
  400DOPC   GL2 4786  12.774   5.098   3.650
  400DOPC   C1A 4787  12.882   5.105   3.950
  400DOPC   D2A 4788  12.939   5.151   4.250
  400DOPC   C3A 4789  12.878   5.180   4.550
  400DOPC   C4A 4790  12.859   5.152   4.850
  400DOPC   C1B 4791  12.590   4.967   3.950
  400DOPC   D2B 4792  12.604   4.938   4.250
  400DOPC   C3B 4793  12.548   4.942   4.550
  400DOPC   C4B 4794  12.579   4.955   4.850
  401DOPC   NC3 4795  12.796   1.837   3.050
  401DOPC   PO4 4796  12.767   1.848   3.350
  401DOPC   GL1 4797  12.851   1.786   3.650
  401DOPC   GL2 4798  12.703   2.020   3.650
  401DOPC   C1A 4799  12.757   1.771   3.950
  401DOPC   D2A 4800  12.823   1.837   4.250
  401DOPC   C3A 4801  12.780   1.757   4.550
  401DOPC   C4A 4802  12.831   1.822   4.850
  401DOPC   C1B 4803  12.714   2.184   3.950
  401DOPC   D2B 4804  12.688   2.097   4.250
  401DOPC   C3B 4805  12.727   2.182   4.550
  401DOPC   C4B 4806  12.705   2.109   4.850
  402DOPC   NC3 4807  16.020   1.251   3.050
  402DOPC   PO4 4808  15.958   1.296   3.350
  402DOPC   GL1 4809  15.962   1.238   3.650
  402DOPC   GL2 4810  15.867   1.162   3.650
  402DOPC   C1A 4811  16.029   1.304   3.950
  402DOPC   D2A 4812  15.984   1.272   4.250
  402DOPC   C3A 4813  15.970   1.230   4.550
  402DOPC   C4A 4814  15.985   1.264   4.850
  402DOPC   C1B 4815  15.687   1.183   3.950
  402DOPC   D2B 4816  15.680   1.131   4.250
  402DOPC   C3B 4817  15.664   1.145   4.550
  402DOPC   C4B 4818  15.613   1.158   4.850
  403DOPC   NC3 4819  12.619   8.292   3.050
  403DOPC   PO4 4820  12.640   8.271   3.350
  403DOPC   GL1 4821  12.571   8.246   3.650
  403DOPC   GL2 4822  12.791   8.136   3.650
  403DOPC   C1A 4823  12.625   8.276   3.950
  403DOPC   D2A 4824  12.659   8.265   4.250
  403DOPC   C3A 4825  12.575   8.264   4.550
  403DOPC   C4A 4826  12.588   8.217   4.850
  403DOPC   C1B 4827  12.876   8.014   3.950
  403DOPC   D2B 4828  12.902   8.004   4.250
  403DOPC   C3B 4829  12.870   8.011   4.550
  403DOPC   C4B 4830  12.832   8.027   4.850
  404DOPC   NC3 4831   5.002   1.059   3.050
  404DOPC   PO4 4832   5.011   1.001   3.350
  404DOPC   GL1 4833   5.075   0.980   3.650
  404DOPC   GL2 4834   5.016   1.172   3.650
  404DOPC   C1A 4835   5.050   0.989   3.950
  404DOPC   D2A 4836   5.047   1.057   4.250
  404DOPC   C3A 4837   5.012   1.018   4.550
  404DOPC   C4A 4838   5.070   1.024   4.850
  404DOPC   C1B 4839   5.034   1.406   3.950
  404DOPC   D2B 4840   5.033   1.348   4.250
  404DOPC   C3B 4841   5.054   1.352   4.550
  404DOPC   C4B 4842   5.021   1.411   4.850
  405DOPC   NC3 4843  14.969   8.773   3.050
  405DOPC   PO4 4844  14.970   8.738   3.350
  405DOPC   GL1 4845  14.929   8.716   3.650
  405DOPC   GL2 4846  15.053   8.929   3.650
  405DOPC   C1A 4847  15.009   8.698   3.950
  405DOPC   D2A 4848  14.992   8.721   4.250
  405DOPC   C3A 4849  15.008   8.693   4.550
  405DOPC   C4A 4850  14.928   8.701   4.850
  405DOPC   C1B 4851  15.131   9.040   3.950
  405DOPC   D2B 4852  15.099   9.013   4.250
  405DOPC   C3B 4853  15.167   9.091   4.550
  405DOPC   C4B 4854  15.171   9.031   4.850
  406DOPC   NC3 4855  16.768   7.417   3.050
  406DOPC   PO4 4856  16.743   7.497   3.350
  406DOPC   GL1 4857  16.692   7.501   3.650
  406DOPC   GL2 4858  16.603   7.319   3.650
  406DOPC   C1A 4859  16.732   7.441   3.950
  406DOPC   D2A 4860  16.775   7.458   4.250
  406DOPC   C3A 4861  16.771   7.433   4.550
  406DOPC   C4A 4862  16.753   7.476   4.850
  406DOPC   C1B 4863  16.439   7.255   3.950
  406DOPC   D2B 4864  16.452   7.289   4.250
  406DOPC   C3B 4865  16.423   7.299   4.550
  406DOPC   C4B 4866  16.486   7.222   4.850
  407DOPC   NC3 4867   1.853   4.117   3.050
  407DOPC   PO4 4868   1.887   4.206   3.350
  407DOPC   GL1 4869   1.845   4.144   3.650
  407DOPC   GL2 4870   1.997   4.291   3.650
  407DOPC   C1A 4871   1.806   4.193   3.950
  407DOPC   D2A 4872   1.816   4.162   4.250
  407DOPC   C3A 4873   1.857   4.176   4.550
  407DOPC   C4A 4874   1.822   4.169   4.850
  407DOPC   C1B 4875   2.129   4.388   3.950
  407DOPC   D2B 4876   2.073   4.396   4.250
  407DOPC   C3B 4877   2.129   4.375   4.550
  407DOPC   C4B 4878   2.151   4.420   4.850
  408DOPC   NC3 4879  17.235   4.943   3.050
  408DOPC   PO4 4880  17.266   4.864   3.350
  408DOPC   GL1 4881  17.274   4.892   3.650
  408DOPC   GL2 4882  17.407   5.049   3.650
  408DOPC   C1A 4883  17.252   4.935   3.950
  408DOPC   D2A 4884  17.277   4.864   4.250
  408DOPC   C3A 4885  17.271   4.905   4.550
  408DOPC   C4A 4886  17.288   4.917   4.850
  408DOPC   C1B 4887  17.472   5.169   3.950
  408DOPC   D2B 4888  17.434   5.158   4.250
  408DOPC   C3B 4889  17.425   5.240   4.550
  408DOPC   C4B 4890  17.432   5.187   4.850
  409DOPC   NC3 4891   7.328   7.163   3.050
  409DOPC   PO4 4892   7.299   7.230   3.350
  409DOPC   GL1 4893   7.331   7.156   3.650
  409DOPC   GL2 4894   7.320   7.337   3.650
  409DOPC   C1A 4895   7.366   7.209   3.950
  409DOPC   D2A 4896   7.295   7.136   4.250
  409DOPC   C3A 4897   7.329   7.149   4.550
  409DOPC   C4A 4898   7.321   7.223   4.850
  409DOPC   C1B 4899   7.417   7.568   3.950
  409DOPC   D2B 4900   7.346   7.504   4.250
  409DOPC   C3B 4901   7.370   7.508   4.550
  409DOPC   C4B 4902   7.360   7.502   4.850
  410DOPC   NC3 4903  16.465   5.623   3.050
  410DOPC   PO4 4904  16.525   5.642   3.350
  410DOPC   GL1 4905  16.450   5.699   3.650
  410DOPC   GL2 4906  16.567   5.781   3.650
  410DOPC   C1A 4907  16.511   5.697   3.950
  410DOPC   D2A 4908  16.497   5.648   4.250
  410DOPC   C3A 4909  16.488   5.644   4.550
  410DOPC   C4A 4910  16.532   5.616   4.850
  410DOPC   C1B 4911  16.667   6.014   3.950
  410DOPC   D2B 4912  16.677   5.963   4.250
  410DOPC   C3B 4913  16.719   5.925   4.550
  410DOPC   C4B 4914  16.653   5.976   4.850
  411DOPC   NC3 4915  15.196   2.621   3.050
  411DOPC   PO4 4916  15.133   2.555   3.350
  411DOPC   GL1 4917  15.120   2.566   3.650
  411DOPC   GL2 4918  15.080   2.732   3.650
  411DOPC   C1A 4919  15.113   2.607   3.950
  411DOPC   D2A 4920  15.113   2.566   4.250
  411DOPC   C3A 4921  15.106   2.633   4.550
  411DOPC   C4A 4922  15.193   2.582   4.850
  411DOPC   C1B 4923  14.988   2.925   3.950
  411DOPC   D2B 4924  14.920   2.870   4.250
  411DOPC   C3B 4925  14.933   2.939   4.550
  411DOPC   C4B 4926  14.965   2.850   4.850
  412DOPC   NC3 4927  13.347   6.600   3.050
  412DOPC   PO4 4928  13.335   6.586   3.350
  412DOPC   GL1 4929  13.373   6.536   3.650
  412DOPC   GL2 4930  13.528   6.603   3.650
  412DOPC   C1A 4931  13.346   6.597   3.950
  412DOPC   D2A 4932  13.288   6.589   4.250
  412DOPC   C3A 4933  13.343   6.530   4.550
  412DOPC   C4A 4934  13.288   6.554   4.850
  412DOPC   C1B 4935  13.680   6.556   3.950
  412DOPC   D2B 4936  13.723   6.596   4.250
  412DOPC   C3B 4937  13.698   6.599   4.550
  412DOPC   C4B 4938  13.716   6.646   4.850
  413DOPC   NC3 4939  15.680   4.364   3.050
  413DOPC   PO4 4940  15.726   4.410   3.350
  413DOPC   GL1 4941  15.645   4.357   3.650
  413DOPC   GL2 4942  15.831   4.237   3.650
  413DOPC   C1A 4943  15.700   4.381   3.950
  413DOPC   D2A 4944  15.730   4.357   4.250
  413DOPC   C3A 4945  15.728   4.396   4.550
  413DOPC   C4A 4946  15.650   4.400   4.850
  413DOPC   C1B 4947  15.995   4.153   3.950
  413DOPC   D2B 4948  15.938   4.175   4.250
  413DOPC   C3B 4949  15.954   4.153   4.550
  413DOPC   C4B 4950  15.991   4.197   4.850
  414DOPC   NC3 4951   4.266   9.450   3.050
  414DOPC   PO4 4952   4.307   9.484   3.350
  414DOPC   GL1 4953   4.328   9.472   3.650
  414DOPC   GL2 4954   4.235   9.668   3.650
  414DOPC   C1A 4955   4.277   9.529   3.950
  414DOPC   D2A 4956   4.347   9.506   4.250
  414DOPC   C3A 4957   4.324   9.505   4.550
  414DOPC   C4A 4958   4.334   9.525   4.850
  414DOPC   C1B 4959   4.220   9.884   3.950
  414DOPC   D2B 4960   4.229   9.801   4.250
  414DOPC   C3B 4961   4.244   9.799   4.550
  414DOPC   C4B 4962   4.286   9.805   4.850
  415DOPC   NC3 4963   5.954   2.655   3.050
  415DOPC   PO4 4964   6.001   2.612   3.350
  415DOPC   GL1 4965   6.000   2.623   3.650
  415DOPC   GL2 4966   5.859   2.748   3.650
  415DOPC   C1A 4967   5.975   2.629   3.950
  415DOPC   D2A 4968   5.933   2.616   4.250
  415DOPC   C3A 4969   5.991   2.622   4.550
  415DOPC   C4A 4970   5.997   2.660   4.850
  415DOPC   C1B 4971   5.665   2.843   3.950
  415DOPC   D2B 4972   5.673   2.806   4.250
  415DOPC   C3B 4973   5.667   2.863   4.550
  415DOPC   C4B 4974   5.718   2.802   4.850
  416DOPC   NC3 4975  14.402   4.179   3.050
  416DOPC   PO4 4976  14.410   4.202   3.350
  416DOPC   GL1 4977  14.391   4.167   3.650
  416DOPC   GL2 4978  14.314   4.323   3.650
  416DOPC   C1A 4979  14.434   4.152   3.950
  416DOPC   D2A 4980  14.405   4.189   4.250
  416DOPC   C3A 4981  14.413   4.188   4.550
  416DOPC   C4A 4982  14.447   4.193   4.850
  416DOPC   C1B 4983  14.141   4.418   3.950
  416DOPC   D2B 4984  14.109   4.392   4.250
  416DOPC   C3B 4985  14.105   4.342   4.550
  416DOPC   C4B 4986  14.107   4.331   4.850
  417DOPC   NC3 4987   5.843   2.164   3.050
  417DOPC   PO4 4988   5.918   2.138   3.350
  417DOPC   GL1 4989   5.837   2.100   3.650
  417DOPC   GL2 4990   5.814   2.000   3.650
  417DOPC   C1A 4991   5.838   2.169   3.950
  417DOPC   D2A 4992   5.876   2.171   4.250
  417DOPC   C3A 4993   5.904   2.097   4.550
  417DOPC   C4A 4994   5.873   2.131   4.850
  417DOPC   C1B 4995   5.804   1.801   3.950
  417DOPC   D2B 4996   5.780   1.841   4.250
  417DOPC   C3B 4997   5.802   1.761   4.550
  417DOPC   C4B 4998   5.813   1.794   4.850
  418DOPC   NC3 4999   1.957   3.383   3.050
  418DOPC   PO4 5000   1.969   3.345   3.350
  418DOPC   GL1 5001   1.896   3.298   3.650
  418DOPC   GL2 5002   1.940   3.535   3.650
  418DOPC   C1A 5003   1.971   3.292   3.950
  418DOPC   D2A 5004   1.893   3.310   4.250
  418DOPC   C3A 5005   1.958   3.353   4.550
  418DOPC   C4A 5006   1.873   3.378   4.850
  418DOPC   C1B 5007   2.073   3.731   3.950
  418DOPC   D2B 5008   2.018   3.723   4.250
  418DOPC   C3B 5009   2.042   3.663   4.550
  418DOPC   C4B 5010   2.058   3.651   4.850
  419DOPC   NC3 5011   6.809   7.406   3.050
  419DOPC   PO4 5012   6.737   7.382   3.350
  419DOPC   GL1 5013   6.810   7.328   3.650
  419DOPC   GL2 5014   6.541   7.337   3.650
  419DOPC   C1A 5015   6.740   7.405   3.950
  419DOPC   D2A 5016   6.800   7.316   4.250
  419DOPC   C3A 5017   6.762   7.340   4.550
  419DOPC   C4A 5018   6.768   7.364   4.850
  419DOPC   C1B 5019   6.390   7.319   3.950
  419DOPC   D2B 5020   6.442   7.321   4.250
  419DOPC   C3B 5021   6.382   7.354   4.550
  419DOPC   C4B 5022   6.448   7.359   4.850
  420DOPC   NC3 5023  11.858   6.514   3.050
  420DOPC   PO4 5024  11.798   6.509   3.350
  420DOPC   GL1 5025  11.781   6.520   3.650
  420DOPC   GL2 5026  11.944   6.579   3.650
  420DOPC   C1A 5027  11.839   6.543   3.950
  420DOPC   D2A 5028  11.837   6.528   4.250
  420DOPC   C3A 5029  11.802   6.519   4.550
  420DOPC   C4A 5030  11.821   6.538   4.850
  420DOPC   C1B 5031  12.169   6.716   3.950
  420DOPC   D2B 5032  12.132   6.676   4.250
  420DOPC   C3B 5033  12.139   6.644   4.550
  420DOPC   C4B 5034  12.170   6.667   4.850
  421DOPC   NC3 5035  11.917   3.659   3.050
  421DOPC   PO4 5036  11.878   3.695   3.350
  421DOPC   GL1 5037  11.964   3.661   3.650
  421DOPC   GL2 5038  11.984   3.528   3.650
  421DOPC   C1A 5039  11.955   3.663   3.950
  421DOPC   D2A 5040  11.904   3.678   4.250
  421DOPC   C3A 5041  11.915   3.656   4.550
  421DOPC   C4A 5042  11.926   3.710   4.850
  421DOPC   C1B 5043  12.041   3.296   3.950
  421DOPC   D2B 5044  12.057   3.336   4.250
  421DOPC   C3B 5045  12.052   3.297   4.550
  421DOPC   C4B 5046  12.004   3.326   4.850
  422DOPC   NC3 5047   9.818   1.121   3.050
  422DOPC   PO4 5048   9.846   1.123   3.350
  422DOPC   GL1 5049   9.842   1.082   3.650
  422DOPC   GL2 5050   9.617   1.158   3.650
  422DOPC   C1A 5051   9.816   1.133   3.950
  422DOPC   D2A 5052   9.850   1.172   4.250
  422DOPC   C3A 5053   9.796   1.083   4.550
  422DOPC   C4A 5054   9.802   1.167   4.850
  422DOPC   C1B 5055   9.548   1.298   3.950
  422DOPC   D2B 5056   9.546   1.328   4.250
  422DOPC   C3B 5057   9.481   1.308   4.550
  422DOPC   C4B 5058   9.510   1.333   4.850
  423DOPC   NC3 5059   9.875   8.200   3.050
  423DOPC   PO4 5060   9.863   8.228   3.350
  423DOPC   GL1 5061   9.789   8.229   3.650
  423DOPC   GL2 5062   9.620   8.171   3.650
  423DOPC   C1A 5063   9.782   8.216   3.950
  423DOPC   D2A 5064   9.812   8.143   4.250
  423DOPC   C3A 5065   9.852   8.173   4.550
  423DOPC   C4A 5066   9.854   8.152   4.850
  423DOPC   C1B 5067   9.476   8.091   3.950
  423DOPC   D2B 5068   9.491   8.062   4.250
  423DOPC   C3B 5069   9.537   8.015   4.550
  423DOPC   C4B 5070   9.508   8.014   4.850
  424DOPC   NC3 5071  18.801   0.612   3.050
  424DOPC   PO4 5072  18.830   0.554   3.350
  424DOPC   GL1 5073  18.783   0.580   3.650
  424DOPC   GL2 5074  18.883   0.464   3.650
  424DOPC   C1A 5075  18.791   0.619   3.950
  424DOPC   D2A 5076  18.786   0.613   4.250
  424DOPC   C3A 5077  18.848   0.647   4.550
  424DOPC   C4A 5078  18.866   0.550   4.850
  424DOPC   C1B 5079  18.989   0.252   3.950
  424DOPC   D2B 5080  19.018   0.284   4.250
  424DOPC   C3B 5081  18.929   0.252   4.550
  424DOPC   C4B 5082  18.935   0.264   4.850
  425DOPC   NC3 5083  12.166   7.276   3.050
  425DOPC   PO4 5084  12.181   7.291   3.350
  425DOPC   GL1 5085  12.095   7.313   3.650
  425DOPC   GL2 5086  12.021   7.400   3.650
  425DOPC   C1A 5087  12.183   7.264   3.950
  425DOPC   D2A 5088  12.184   7.288   4.250
  425DOPC   C3A 5089  12.158   7.242   4.550
  425DOPC   C4A 5090  12.132   7.311   4.850
  425DOPC   C1B 5091  11.803   7.414   3.950
  425DOPC   D2B 5092  11.848   7.467   4.250
  425DOPC   C3B 5093  11.856   7.419   4.550
  425DOPC   C4B 5094  11.777   7.393   4.850
  426DOPC   NC3 5095   0.337   8.751   3.050
  426DOPC   PO4 5096   0.246   8.795   3.350
  426DOPC   GL1 5097   0.283   8.767   3.650
  426DOPC   GL2 5098   0.446   8.883   3.650
  426DOPC   C1A 5099   0.319   8.827   3.950
  426DOPC   D2A 5100   0.252   8.798   4.250
  426DOPC   C3A 5101   0.339   8.742   4.550
  426DOPC   C4A 5102   0.309   8.797   4.850
  426DOPC   C1B 5103   0.543   9.001   3.950
  426DOPC   D2B 5104   0.540   8.982   4.250
  426DOPC   C3B 5105   0.618   9.001   4.550
  426DOPC   C4B 5106   0.606   8.968   4.850
  427DOPC   NC3 5107   7.223   3.637   3.050
  427DOPC   PO4 5108   7.171   3.625   3.350
  427DOPC   GL1 5109   7.237   3.651   3.650
  427DOPC   GL2 5110   7.333   3.481   3.650
  427DOPC   C1A 5111   7.175   3.576   3.950
  427DOPC   D2A 5112   7.171   3.620   4.250
  427DOPC   C3A 5113   7.251   3.579   4.550
  427DOPC   C4A 5114   7.238   3.624   4.850
  427DOPC   C1B 5115   7.509   3.390   3.950
  427DOPC   D2B 5116   7.449   3.427   4.250
  427DOPC   C3B 5117   7.495   3.404   4.550
  427DOPC   C4B 5118   7.452   3.362   4.850
  428DOPC   NC3 5119   9.851   6.564   3.050
  428DOPC   PO4 5120   9.811   6.559   3.350
  428DOPC   GL1 5121   9.848   6.535   3.650
  428DOPC   GL2 5122   9.677   6.632   3.650
  428DOPC   C1A 5123   9.794   6.538   3.950
  428DOPC   D2A 5124   9.854   6.524   4.250
  428DOPC   C3A 5125   9.785   6.536   4.550
  428DOPC   C4A 5126   9.804   6.525   4.850
  428DOPC   C1B 5127   9.475   6.616   3.950
  428DOPC   D2B 5128   9.480   6.677   4.250
  428DOPC   C3B 5129   9.537   6.629   4.550
  428DOPC   C4B 5130   9.455   6.615   4.850
  429DOPC   NC3 5131  19.609   8.740   3.050
  429DOPC   PO4 5132  19.577   8.745   3.350
  429DOPC   GL1 5133  19.562   8.728   3.650
  429DOPC   GL2 5134  19.642   8.922   3.650
  429DOPC   C1A 5135  19.614   8.703   3.950
  429DOPC   D2A 5136  19.613   8.742   4.250
  429DOPC   C3A 5137  19.530   8.704   4.550
  429DOPC   C4A 5138  19.606   8.792   4.850
  429DOPC   C1B 5139  19.716   9.011   3.950
  429DOPC   D2B 5140  19.737   9.003   4.250
  429DOPC   C3B 5141  19.779   9.066   4.550
  429DOPC   C4B 5142  19.736   9.037   4.850
  430DOPC   NC3 5143   0.495   0.307   3.050
  430DOPC   PO4 5144   0.505   0.273   3.350
  430DOPC   GL1 5145   0.510   0.246   3.650
  430DOPC   GL2 5146   0.470   0.464   3.650
  430DOPC   C1A 5147   0.472   0.271   3.950
  430DOPC   D2A 5148   0.490   0.228   4.250
  430DOPC   C3A 5149   0.525   0.296   4.550
  430DOPC   C4A 5150   0.502   0.306   4.850
  430DOPC   C1B 5151   0.377   0.609   3.950
  430DOPC   D2B 5152   0.322   0.609   4.250
  430DOPC   C3B 5153   0.395   0.577   4.550
  430DOPC   C4B 5154   0.349   0.588   4.850
  431DOPC   NC3 5155  14.192   8.692   3.050
  431DOPC   PO4 5156  14.216   8.773   3.350
  431DOPC   GL1 5157  14.165   8.762   3.650
  431DOPC   GL2 5158  14.274   8.898   3.650
  431DOPC   C1A 5159  14.258   8.702   3.950
  431DOPC   D2A 5160  14.181   8.719   4.250
  431DOPC   C3A 5161  14.213   8.736   4.550
  431DOPC   C4A 5162  14.227   8.686   4.850
  431DOPC   C1B 5163  14.360   9.105   3.950
  431DOPC   D2B 5164  14.355   9.065   4.250
  431DOPC   C3B 5165  14.325   9.087   4.550
  431DOPC   C4B 5166  14.376   9.018   4.850
  432DOPC   NC3 5167  11.805   8.253   3.050
  432DOPC   PO4 5168  11.799   8.295   3.350
  432DOPC   GL1 5169  11.827   8.272   3.650
  432DOPC   GL2 5170  11.940   8.157   3.650
  432DOPC   C1A 5171  11.867   8.302   3.950
  432DOPC   D2A 5172  11.826   8.206   4.250
  432DOPC   C3A 5173  11.883   8.228   4.550
  432DOPC   C4A 5174  11.797   8.204   4.850
  432DOPC   C1B 5175  12.116   7.982   3.950
  432DOPC   D2B 5176  12.107   7.968   4.250
  432DOPC   C3B 5177  12.079   7.975   4.550
  432DOPC   C4B 5178  12.098   7.978   4.850
  433DOPC   NC3 5179   1.273   7.949   3.050
  433DOPC   PO4 5180   1.269   7.979   3.350
  433DOPC   GL1 5181   1.316   8.034   3.650
  433DOPC   GL2 5182   1.185   8.089   3.650
  433DOPC   C1A 5183   1.350   7.950   3.950
  433DOPC   D2A 5184   1.286   8.030   4.250
  433DOPC   C3A 5185   1.338   7.974   4.550
  433DOPC   C4A 5186   1.298   8.000   4.850
  433DOPC   C1B 5187   1.071   8.316   3.950
  433DOPC   D2B 5188   1.101   8.274   4.250
  433DOPC   C3B 5189   1.092   8.290   4.550
  433DOPC   C4B 5190   1.129   8.244   4.850
  434DOPC   NC3 5191  18.879   3.301   3.050
  434DOPC   PO4 5192  18.932   3.361   3.350
  434DOPC   GL1 5193  18.876   3.370   3.650
  434DOPC   GL2 5194  18.848   3.523   3.650
  434DOPC   C1A 5195  18.868   3.304   3.950
  434DOPC   D2A 5196  18.891   3.312   4.250
  434DOPC   C3A 5197  18.850   3.320   4.550
  434DOPC   C4A 5198  18.869   3.349   4.850
  434DOPC   C1B 5199  18.898   3.704   3.950
  434DOPC   D2B 5200  18.906   3.727   4.250
  434DOPC   C3B 5201  18.863   3.721   4.550
  434DOPC   C4B 5202  18.937   3.682   4.850
  435DOPC   NC3 5203   5.726   9.859   3.050
  435DOPC   PO4 5204   5.781   9.795   3.350
  435DOPC   GL1 5205   5.776   9.802   3.650
  435DOPC   GL2 5206   5.791   9.695   3.650
  435DOPC   C1A 5207   5.739   9.795   3.950
  435DOPC   D2A 5208   5.740   9.826   4.250
  435DOPC   C3A 5209   5.721   9.807   4.550
  435DOPC   C4A 5210   5.765   9.832   4.850
  435DOPC   C1B 5211   5.862   9.490   3.950
  435DOPC   D2B 5212   5.830   9.507   4.250
  435DOPC   C3B 5213   5.848   9.498   4.550
  435DOPC   C4B 5214   5.872   9.532   4.850
  436DOPC   NC3 5215  15.166   7.278   3.050
  436DOPC   PO4 5216  15.211   7.233   3.350
  436DOPC   GL1 5217  15.163   7.267   3.650
  436DOPC   GL2 5218  15.057   7.379   3.650
  436DOPC   C1A 5219  15.186   7.210   3.950
  436DOPC   D2A 5220  15.183   7.243   4.250
  436DOPC   C3A 5221  15.185   7.304   4.550
  436DOPC   C4A 5222  15.192   7.286   4.850
  436DOPC   C1B 5223  14.946   7.424   3.950
  436DOPC   D2B 5224  14.919   7.502   4.250
  436DOPC   C3B 5225  14.877   7.451   4.550
  436DOPC   C4B 5226  14.867   7.412   4.850
  437DOPC   NC3 5227  14.405   7.941   3.050
  437DOPC   PO4 5228  14.363   8.015   3.350
  437DOPC   GL1 5229  14.396   7.985   3.650
  437DOPC   GL2 5230  14.246   8.105   3.650
  437DOPC   C1A 5231  14.416   7.967   3.950
  437DOPC   D2A 5232  14.397   8.031   4.250
  437DOPC   C3A 5233  14.428   8.035   4.550
  437DOPC   C4A 5234  14.406   7.956   4.850
  437DOPC   C1B 5235  14.217   8.312   3.950
  437DOPC   D2B 5236  14.135   8.258   4.250
  437DOPC   C3B 5237  14.164   8.307   4.550
  437DOPC   C4B 5238  14.151   8.220   4.850
  438DOPC   NC3 5239  15.013   7.905   3.050
  438DOPC   PO4 5240  15.031   7.959   3.350
  438DOPC   GL1 5241  15.015   7.979   3.650
  438DOPC   GL2 5242  15.016   8.113   3.650
  438DOPC   C1A 5243  15.023   7.974   3.950
  438DOPC   D2A 5244  15.059   7.918   4.250
  438DOPC   C3A 5245  14.989   7.931   4.550
  438DOPC   C4A 5246  15.028   7.972   4.850
  438DOPC   C1B 5247  15.065   8.334   3.950
  438DOPC   D2B 5248  15.095   8.325   4.250
  438DOPC   C3B 5249  15.113   8.306   4.550
  438DOPC   C4B 5250  15.088   8.337   4.850
  439DOPC   NC3 5251   9.464   3.628   3.050
  439DOPC   PO4 5252   9.498   3.557   3.350
  439DOPC   GL1 5253   9.546   3.563   3.650
  439DOPC   GL2 5254   9.698   3.546   3.650
  439DOPC   C1A 5255   9.464   3.545   3.950
  439DOPC   D2A 5256   9.499   3.592   4.250
  439DOPC   C3A 5257   9.496   3.562   4.550
  439DOPC   C4A 5258   9.459   3.577   4.850
  439DOPC   C1B 5259   9.801   3.417   3.950
  439DOPC   D2B 5260   9.794   3.463   4.250
  439DOPC   C3B 5261   9.785   3.485   4.550
  439DOPC   C4B 5262   9.842   3.465   4.850
  440DOPC   NC3 5263   1.147   2.532   3.050
  440DOPC   PO4 5264   1.186   2.535   3.350
  440DOPC   GL1 5265   1.209   2.616   3.650
  440DOPC   GL2 5266   1.161   2.762   3.650
  440DOPC   C1A 5267   1.130   2.603   3.950
  440DOPC   D2A 5268   1.137   2.536   4.250
  440DOPC   C3A 5269   1.214   2.585   4.550
  440DOPC   C4A 5270   1.212   2.526   4.850
  440DOPC   C1B 5271   1.253   2.906   3.950
  440DOPC   D2B 5272   1.268   2.930   4.250
  440DOPC   C3B 5273   1.227   2.885   4.550
  440DOPC   C4B 5274   1.235   2.928   4.850
  441DOPC   NC3 5275  18.743   2.792   3.050
  441DOPC   PO4 5276  18.707   2.738   3.350
  441DOPC   GL1 5277  18.684   2.745   3.650
  441DOPC   GL2 5278  18.942   2.726   3.650
  441DOPC   C1A 5279  18.685   2.761   3.950
  441DOPC   D2A 5280  18.708   2.811   4.250
  441DOPC   C3A 5281  18.744   2.803   4.550
  441DOPC   C4A 5282  18.689   2.803   4.850
  441DOPC   C1B 5283  19.084   2.729   3.950
  441DOPC   D2B 5284  19.109   2.764   4.250
  441DOPC   C3B 5285  19.105   2.689   4.550
  441DOPC   C4B 5286  19.078   2.744   4.850
  442DOPC   NC3 5287  15.094   4.433   3.050
  442DOPC   PO4 5288  15.061   4.437   3.350
  442DOPC   GL1 5289  14.999   4.481   3.650
  442DOPC   GL2 5290  15.085   4.331   3.650
  442DOPC   C1A 5291  15.049   4.420   3.950
  442DOPC   D2A 5292  15.037   4.501   4.250
  442DOPC   C3A 5293  15.022   4.482   4.550
  442DOPC   C4A 5294  15.033   4.416   4.850
  442DOPC   C1B 5295  15.039   4.061   3.950
  442DOPC   D2B 5296  15.032   4.138   4.250
  442DOPC   C3B 5297  15.041   4.076   4.550
  442DOPC   C4B 5298  15.091   4.094   4.850
  443DOPC   NC3 5299   8.885   2.570   3.050
  443DOPC   PO4 5300   8.952   2.598   3.350
  443DOPC   GL1 5301   8.929   2.600   3.650
  443DOPC   GL2 5302   8.861   2.700   3.650
  443DOPC   C1A 5303   8.913   2.546   3.950
  443DOPC   D2A 5304   8.865   2.573   4.250
  443DOPC   C3A 5305   8.925   2.516   4.550
  443DOPC   C4A 5306   8.901   2.569   4.850
  443DOPC   C1B 5307   8.857   2.897   3.950
  443DOPC   D2B 5308   8.889   2.891   4.250
  443DOPC   C3B 5309   8.889   2.953   4.550
  443DOPC   C4B 5310   8.853   2.920   4.850
  444DOPC   NC3 5311   2.134   0.605   3.050
  444DOPC   PO4 5312   2.058   0.548   3.350
  444DOPC   GL1 5313   2.076   0.598   3.650
  444DOPC   GL2 5314   1.931   0.402   3.650
  444DOPC   C1A 5315   2.095   0.532   3.950
  444DOPC   D2A 5316   2.058   0.531   4.250
  444DOPC   C3A 5317   2.098   0.619   4.550
  444DOPC   C4A 5318   2.065   0.531   4.850
  444DOPC   C1B 5319   1.812   0.340   3.950
  444DOPC   D2B 5320   1.865   0.267   4.250
  444DOPC   C3B 5321   1.858   0.283   4.550
  444DOPC   C4B 5322   1.872   0.267   4.850
  445DOPC   NC3 5323   8.306   5.155   3.050
  445DOPC   PO4 5324   8.246   5.179   3.350
  445DOPC   GL1 5325   8.276   5.158   3.650
  445DOPC   GL2 5326   8.093   5.001   3.650
  445DOPC   C1A 5327   8.308   5.209   3.950
  445DOPC   D2A 5328   8.244   5.215   4.250
  445DOPC   C3A 5329   8.303   5.157   4.550
  445DOPC   C4A 5330   8.233   5.204   4.850
  445DOPC   C1B 5331   7.954   4.920   3.950
  445DOPC   D2B 5332   7.977   4.963   4.250
  445DOPC   C3B 5333   8.007   4.971   4.550
  445DOPC   C4B 5334   7.959   4.891   4.850
  446DOPC   NC3 5335   2.584   3.485   3.050
  446DOPC   PO4 5336   2.533   3.486   3.350
  446DOPC   GL1 5337   2.542   3.421   3.650
  446DOPC   GL2 5338   2.711   3.521   3.650
  446DOPC   C1A 5339   2.521   3.452   3.950
  446DOPC   D2A 5340   2.601   3.497   4.250
  446DOPC   C3A 5341   2.594   3.511   4.550
  446DOPC   C4A 5342   2.544   3.459   4.850
  446DOPC   C1B 5343   2.941   3.607   3.950
  446DOPC   D2B 5344   2.902   3.610   4.250
  446DOPC   C3B 5345   2.874   3.524   4.550
  446DOPC   C4B 5346   2.923   3.579   4.850
  447DOPC   NC3 5347   9.723   9.545   3.050
  447DOPC   PO4 5348   9.700   9.471   3.350
  447DOPC   GL1 5349   9.735   9.468   3.650
  447DOPC   GL2 5350   9.695   9.624   3.650
  447DOPC   C1A 5351   9.774   9.454   3.950
  447DOPC   D2A 5352   9.713   9.526   4.250
  447DOPC   C3A 5353   9.773   9.540   4.550
  447DOPC   C4A 5354   9.728   9.487   4.850
  447DOPC   C1B 5355   9.620   9.840   3.950
  447DOPC   D2B 5356   9.589   9.833   4.250
  447DOPC   C3B 5357   9.595   9.842   4.550
  447DOPC   C4B 5358   9.631   9.784   4.850
  448DOPC   NC3 5359   8.887   5.666   3.050
  448DOPC   PO4 5360   8.864   5.647   3.350
  448DOPC   GL1 5361   8.879   5.625   3.650
  448DOPC   GL2 5362   8.906   5.860   3.650
  448DOPC   C1A 5363   8.859   5.595   3.950
  448DOPC   D2A 5364   8.935   5.666   4.250
  448DOPC   C3A 5365   8.894   5.610   4.550
  448DOPC   C4A 5366   8.895   5.663   4.850
  448DOPC   C1B 5367   8.923   5.977   3.950
  448DOPC   D2B 5368   8.912   5.983   4.250
  448DOPC   C3B 5369   8.892   6.010   4.550
  448DOPC   C4B 5370   8.873   6.015   4.850
  449DOPC   NC3 5371  14.422   6.754   3.050
  449DOPC   PO4 5372  14.377   6.696   3.350
  449DOPC   GL1 5373  14.345   6.778   3.650
  449DOPC   GL2 5374  14.294   6.551   3.650
  449DOPC   C1A 5375  14.354   6.735   3.950
  449DOPC   D2A 5376  14.430   6.686   4.250
  449DOPC   C3A 5377  14.384   6.690   4.550
  449DOPC   C4A 5378  14.342   6.745   4.850
  449DOPC   C1B 5379  14.206   6.405   3.950
  449DOPC   D2B 5380  14.126   6.470   4.250
  449DOPC   C3B 5381  14.189   6.482   4.550
  449DOPC   C4B 5382  14.155   6.489   4.850
  450DOPC   NC3 5383   7.272   1.755   3.050
  450DOPC   PO4 5384   7.269   1.773   3.350
  450DOPC   GL1 5385   7.313   1.782   3.650
  450DOPC   GL2 5386   7.354   2.008   3.650
  450DOPC   C1A 5387   7.322   1.776   3.950
  450DOPC   D2A 5388   7.257   1.852   4.250
  450DOPC   C3A 5389   7.332   1.821   4.550
  450DOPC   C4A 5390   7.324   1.842   4.850
  450DOPC   C1B 5391   7.410   2.128   3.950
  450DOPC   D2B 5392   7.450   2.118   4.250
  450DOPC   C3B 5393   7.421   2.139   4.550
  450DOPC   C4B 5394   7.367   2.126   4.850
  451DOPC   NC3 5395  13.317   9.577   3.050
  451DOPC   PO4 5396  13.301   9.614   3.350
  451DOPC   GL1 5397  13.294   9.556   3.650
  451DOPC   GL2 5398  13.526   9.710   3.650
  451DOPC   C1A 5399  13.378   9.612   3.950
  451DOPC   D2A 5400  13.368   9.649   4.250
  451DOPC   C3A 5401  13.310   9.599   4.550
  451DOPC   C4A 5402  13.315   9.599   4.850
  451DOPC   C1B 5403  13.715   9.685   3.950
  451DOPC   D2B 5404  13.724   9.706   4.250
  451DOPC   C3B 5405  13.667   9.722   4.550
  451DOPC   C4B 5406  13.708   9.767   4.850
  452DOPC   NC3 5407  10.538   8.004   3.050
  452DOPC   PO4 5408  10.604   8.031   3.350
  452DOPC   GL1 5409  10.533   8.021   3.650
  452DOPC   GL2 5410  10.460   8.161   3.650
  452DOPC   C1A 5411  10.537   8.024   3.950
  452DOPC   D2A 5412  10.515   8.016   4.250
  452DOPC   C3A 5413  10.539   8.027   4.550
  452DOPC   C4A 5414  10.558   8.024   4.850
  452DOPC   C1B 5415  10.301   8.280   3.950
  452DOPC   D2B 5416  10.356   8.277   4.250
  452DOPC   C3B 5417  10.304   8.274   4.550
  452DOPC   C4B 5418  10.301   8.306   4.850
  453DOPC   NC3 5419  18.282   8.769   3.050
  453DOPC   PO4 5420  18.290   8.750   3.350
  453DOPC   GL1 5421  18.246   8.759   3.650
  453DOPC   GL2 5422  18.133   8.913   3.650
  453DOPC   C1A 5423  18.274   8.742   3.950
  453DOPC   D2A 5424  18.246   8.769   4.250
  453DOPC   C3A 5425  18.287   8.823   4.550
  453DOPC   C4A 5426  18.298   8.786   4.850
  453DOPC   C1B 5427  17.956   8.993   3.950
  453DOPC   D2B 5428  17.956   9.029   4.250
  453DOPC   C3B 5429  17.971   9.030   4.550
  453DOPC   C4B 5430  18.002   9.038   4.850
  454DOPC   NC3 5431  19.618   2.131   3.050
  454DOPC   PO4 5432  19.539   2.089   3.350
  454DOPC   GL1 5433  19.562   2.146   3.650
  454DOPC   GL2 5434  19.658   1.996   3.650
  454DOPC   C1A 5435  19.631   2.146   3.950
  454DOPC   D2A 5436  19.582   2.156   4.250
  454DOPC   C3A 5437  19.629   2.162   4.550
  454DOPC   C4A 5438  19.595   2.150   4.850
  454DOPC   C1B 5439  19.751   1.814   3.950
  454DOPC   D2B 5440  19.767   1.838   4.250
  454DOPC   C3B 5441  19.721   1.794   4.550
  454DOPC   C4B 5442  19.717   1.795   4.850
  455DOPC   NC3 5443   7.200   6.682   3.050
  455DOPC   PO4 5444   7.243   6.709   3.350
  455DOPC   GL1 5445   7.220   6.744   3.650
  455DOPC   GL2 5446   7.403   6.630   3.650
  455DOPC   C1A 5447   7.198   6.676   3.950
  455DOPC   D2A 5448   7.259   6.753   4.250
  455DOPC   C3A 5449   7.267   6.759   4.550
  455DOPC   C4A 5450   7.221   6.739   4.850
  455DOPC   C1B 5451   7.473   6.470   3.950
  455DOPC   D2B 5452   7.485   6.450   4.250
  455DOPC   C3B 5453   7.498   6.448   4.550
  455DOPC   C4B 5454   7.524   6.444   4.850
  456DOPC   NC3 5455  16.773   4.157   3.050
  456DOPC   PO4 5456  16.710   4.158   3.350
  456DOPC   GL1 5457  16.705   4.227   3.650
  456DOPC   GL2 5458  16.576   4.275   3.650
  456DOPC   C1A 5459  16.729   4.234   3.950
  456DOPC   D2A 5460  16.786   4.149   4.250
  456DOPC   C3A 5461  16.757   4.203   4.550
  456DOPC   C4A 5462  16.725   4.183   4.850
  456DOPC   C1B 5463  16.394   4.386   3.950
  456DOPC   D2B 5464  16.409   4.340   4.250
  456DOPC   C3B 5465  16.394   4.365   4.550
  456DOPC   C4B 5466  16.437   4.395   4.850
  457DOPC   NC3 5467   5.076   1.802   3.050
  457DOPC   PO4 5468   5.109   1.828   3.350
  457DOPC   GL1 5469   5.119   1.848   3.650
  457DOPC   GL2 5470   5.021   1.991   3.650
  457DOPC   C1A 5471   5.092   1.758   3.950
  457DOPC   D2A 5472   5.076   1.845   4.250
  457DOPC   C3A 5473   5.115   1.812   4.550
  457DOPC   C4A 5474   5.082   1.807   4.850
  457DOPC   C1B 5475   5.018   2.181   3.950
  457DOPC   D2B 5476   4.996   2.122   4.250
  457DOPC   C3B 5477   4.966   2.110   4.550
  457DOPC   C4B 5478   4.975   2.174   4.850
  458DOPC   NC3 5479  11.019   1.236   3.050
  458DOPC   PO4 5480  10.987   1.300   3.350
  458DOPC   GL1 5481  11.076   1.232   3.650
  458DOPC   GL2 5482  11.237   1.187   3.650
  458DOPC   C1A 5483  11.001   1.297   3.950
  458DOPC   D2A 5484  10.986   1.244   4.250
  458DOPC   C3A 5485  11.001   1.219   4.550
  458DOPC   C4A 5486  11.013   1.261   4.850
  458DOPC   C1B 5487  11.353   1.196   3.950
  458DOPC   D2B 5488  11.346   1.201   4.250
  458DOPC   C3B 5489  11.358   1.139   4.550
  458DOPC   C4B 5490  11.403   1.119   4.850
  459DOPC   NC3 5491  12.662   9.884   3.050
  459DOPC   PO4 5492  12.665   9.802   3.350
  459DOPC   GL1 5493  12.658   9.872   3.650
  459DOPC   GL2 5494  12.758   9.707   3.650
  459DOPC   C1A 5495  12.698   9.881   3.950
  459DOPC   D2A 5496  12.692   9.815   4.250
  459DOPC   C3A 5497  12.735   9.869   4.550
  459DOPC   C4A 5498  12.676   9.812   4.850
  459DOPC   C1B 5499  12.838   9.514   3.950
  459DOPC   D2B 5500  12.773   9.533   4.250
  459DOPC   C3B 5501  12.765   9.450   4.550
  459DOPC   C4B 5502  12.838   9.535   4.850
  460DOPC   NC3 5503   0.217   9.659   3.050
  460DOPC   PO4 5504   0.274   9.722   3.350
  460DOPC   GL1 5505   0.210   9.731   3.650
  460DOPC   GL2 5506   0.394   9.678   3.650
  460DOPC   C1A 5507   0.230   9.730   3.950
  460DOPC   D2A 5508   0.251   9.740   4.250
  460DOPC   C3A 5509   0.297   9.716   4.550
  460DOPC   C4A 5510   0.306   9.739   4.850
  460DOPC   C1B 5511   0.596   9.587   3.950
  460DOPC   D2B 5512   0.610   9.588   4.250
  460DOPC   C3B 5513   0.565   9.659   4.550
  460DOPC   C4B 5514   0.620   9.611   4.850
  461DOPC   NC3 5515  17.396   5.969   3.050
  461DOPC   PO4 5516  17.426   6.000   3.350
  461DOPC   GL1 5517  17.372   5.972   3.650
  461DOPC   GL2 5518  17.364   5.784   3.650
  461DOPC   C1A 5519  17.376   6.010   3.950
  461DOPC   D2A 5520  17.400   6.022   4.250
  461DOPC   C3A 5521  17.349   6.017   4.550
  461DOPC   C4A 5522  17.416   5.992   4.850
  461DOPC   C1B 5523  17.342   5.626   3.950
  461DOPC   D2B 5524  17.337   5.671   4.250
  461DOPC   C3B 5525  17.301   5.609   4.550
  461DOPC   C4B 5526  17.274   5.650   4.850
  462DOPC   NC3 5527   5.092   0.605   3.050
  462DOPC   PO4 5528   5.077   0.599   3.350
  462DOPC   GL1 5529   5.033   0.605   3.650
  462DOPC   GL2 5530   5.086   0.467   3.650
  462DOPC   C1A 5531   5.074   0.623   3.950
  462DOPC   D2A 5532   5.027   0.608   4.250
  462DOPC   C3A 5533   5.090   0.593   4.550
  462DOPC   C4A 5534   5.079   0.601   4.850
  462DOPC   C1B 5535   5.028   0.290   3.950
  462DOPC   D2B 5536   4.999   0.233   4.250
  462DOPC   C3B 5537   5.031   0.301   4.550
  462DOPC   C4B 5538   5.027   0.211   4.850
  463DOPC   NC3 5539  11.316   0.615   3.050
  463DOPC   PO4 5540  11.333   0.553   3.350
  463DOPC   GL1 5541  11.266   0.620   3.650
  463DOPC   GL2 5542  11.212   0.390   3.650
  463DOPC   C1A 5543  11.308   0.596   3.950
  463DOPC   D2A 5544  11.324   0.550   4.250
  463DOPC   C3A 5545  11.323   0.533   4.550
  463DOPC   C4A 5546  11.327   0.588   4.850
  463DOPC   C1B 5547  11.102   0.293   3.950
  463DOPC   D2B 5548  11.137   0.242   4.250
  463DOPC   C3B 5549  11.133   0.303   4.550
  463DOPC   C4B 5550  11.092   0.288   4.850
  464DOPC   NC3 5551  13.516   7.564   3.050
  464DOPC   PO4 5552  13.537   7.573   3.350
  464DOPC   GL1 5553  13.540   7.568   3.650
  464DOPC   GL2 5554  13.501   7.352   3.650
  464DOPC   C1A 5555  13.485   7.552   3.950
  464DOPC   D2A 5556  13.545   7.560   4.250
  464DOPC   C3A 5557  13.511   7.521   4.550
  464DOPC   C4A 5558  13.576   7.486   4.850
  464DOPC   C1B 5559  13.447   7.173   3.950
  464DOPC   D2B 5560  13.477   7.165   4.250
  464DOPC   C3B 5561  13.487   7.200   4.550
  464DOPC   C4B 5562  13.493   7.189   4.850
  465DOPC   NC3 5563   5.822   3.652   3.050
  465DOPC   PO4 5564   5.867   3.668   3.350
  465DOPC   GL1 5565   5.797   3.723   3.650
  465DOPC   GL2 5566   5.812   3.538   3.650
  465DOPC   C1A 5567   5.839   3.674   3.950
  465DOPC   D2A 5568   5.852   3.659   4.250
  465DOPC   C3A 5569   5.869   3.684   4.550
  465DOPC   C4A 5570   5.839   3.738   4.850
  465DOPC   C1B 5571   5.813   3.337   3.950
  465DOPC   D2B 5572   5.837   3.326   4.250
  465DOPC   C3B 5573   5.792   3.333   4.550
  465DOPC   C4B 5574   5.771   3.363   4.850
  466DOPC   NC3 5575  16.630   2.557   3.050
  466DOPC   PO4 5576  16.544   2.536   3.350
  466DOPC   GL1 5577  16.556   2.552   3.650
  466DOPC   GL2 5578  16.549   2.749   3.650
  466DOPC   C1A 5579  16.595   2.612   3.950
  466DOPC   D2A 5580  16.628   2.575   4.250
  466DOPC   C3A 5581  16.621   2.590   4.550
  466DOPC   C4A 5582  16.545   2.556   4.850
  466DOPC   C1B 5583  16.573   2.879   3.950
  466DOPC   D2B 5584  16.560   2.899   4.250
  466DOPC   C3B 5585  16.564   2.891   4.550
  466DOPC   C4B 5586  16.553   2.898   4.850
  467DOPC   NC3 5587   5.688   0.546   3.050
  467DOPC   PO4 5588   5.626   0.571   3.350
  467DOPC   GL1 5589   5.683   0.572   3.650
  467DOPC   GL2 5590   5.789   0.479   3.650
  467DOPC   C1A 5591   5.637   0.528   3.950
  467DOPC   D2A 5592   5.628   0.539   4.250
  467DOPC   C3A 5593   5.641   0.576   4.550
  467DOPC   C4A 5594   5.687   0.549   4.850
  467DOPC   C1B 5595   5.938   0.304   3.950
  467DOPC   D2B 5596   5.918   0.296   4.250
  467DOPC   C3B 5597   6.002   0.282   4.550
  467DOPC   C4B 5598   5.999   0.372   4.850
  468DOPC   NC3 5599   7.233   5.747   3.050
  468DOPC   PO4 5600   7.193   5.809   3.350
  468DOPC   GL1 5601   7.212   5.765   3.650
  468DOPC   GL2 5602   7.363   5.860   3.650
  468DOPC   C1A 5603   7.198   5.732   3.950
  468DOPC   D2A 5604   7.235   5.763   4.250
  468DOPC   C3A 5605   7.206   5.780   4.550
  468DOPC   C4A 5606   7.183   5.802   4.850
  468DOPC   C1B 5607   7.479   5.897   3.950
  468DOPC   D2B 5608   7.543   5.857   4.250
  468DOPC   C3B 5609   7.501   5.843   4.550
  468DOPC   C4B 5610   7.566   5.832   4.850
  469DOPC   NC3 5611   4.443   6.468   3.050
  469DOPC   PO4 5612   4.382   6.450   3.350
  469DOPC   GL1 5613   4.389   6.436   3.650
  469DOPC   GL2 5614   4.258   6.619   3.650
  469DOPC   C1A 5615   4.443   6.460   3.950
  469DOPC   D2A 5616   4.372   6.460   4.250
  469DOPC   C3A 5617   4.445   6.403   4.550
  469DOPC   C4A 5618   4.399   6.421   4.850
  469DOPC   C1B 5619   4.184   6.717   3.950
  469DOPC   D2B 5620   4.179   6.680   4.250
  469DOPC   C3B 5621   4.202   6.739   4.550
  469DOPC   C4B 5622   4.204   6.701   4.850
  470DOPC   NC3 5623  14.955   6.716   3.050
  470DOPC   PO4 5624  14.916   6.676   3.350
  470DOPC   GL1 5625  14.962   6.681   3.650
  470DOPC   GL2 5626  15.069   6.628   3.650
  470DOPC   C1A 5627  14.940   6.701   3.950
  470DOPC   D2A 5628  14.935   6.689   4.250
  470DOPC   C3A 5629  14.958   6.714   4.550
  470DOPC   C4A 5630  14.942   6.722   4.850
  470DOPC   C1B 5631  15.142   6.517   3.950
  470DOPC   D2B 5632  15.179   6.455   4.250
  470DOPC   C3B 5633  15.191   6.482   4.550
  470DOPC   C4B 5634  15.186   6.504   4.850
  471DOPC   NC3 5635   9.473   2.014   3.050
  471DOPC   PO4 5636   9.502   2.082   3.350
  471DOPC   GL1 5637   9.479   2.066   3.650
  471DOPC   GL2 5638   9.712   1.946   3.650
  471DOPC   C1A 5639   9.467   2.019   3.950
  471DOPC   D2A 5640   9.465   2.102   4.250
  471DOPC   C3A 5641   9.459   2.046   4.550
  471DOPC   C4A 5642   9.477   2.021   4.850
  471DOPC   C1B 5643   9.812   1.852   3.950
  471DOPC   D2B 5644   9.836   1.841   4.250
  471DOPC   C3B 5645   9.858   1.877   4.550
  471DOPC   C4B 5646   9.773   1.856   4.850
  472DOPC   NC3 5647   9.679   8.724   3.050
  472DOPC   PO4 5648   9.622   8.703   3.350
  472DOPC   GL1 5649   9.684   8.736   3.650
  472DOPC   GL2 5650   9.672   8.867   3.650
  472DOPC   C1A 5651   9.679   8.752   3.950
  472DOPC   D2A 5652   9.623   8.748   4.250
  472DOPC   C3A 5653   9.626   8.690   4.550
  472DOPC   C4A 5654   9.669   8.725   4.850
  472DOPC   C1B 5655   9.650   9.107   3.950
  472DOPC   D2B 5656   9.634   9.057   4.250
  472DOPC   C3B 5657   9.677   9.025   4.550
  472DOPC   C4B 5658   9.645   9.084   4.850
  473DOPC   NC3 5659  15.758   4.852   3.050
  473DOPC   PO4 5660  15.671   4.944   3.350
  473DOPC   GL1 5661  15.736   4.946   3.650
  473DOPC   GL2 5662  15.807   5.036   3.650
  473DOPC   C1A 5663  15.750   4.921   3.950
  473DOPC   D2A 5664  15.753   4.871   4.250
  473DOPC   C3A 5665  15.706   4.931   4.550
  473DOPC   C4A 5666  15.740   4.857   4.850
  473DOPC   C1B 5667  15.910   5.157   3.950
  473DOPC   D2B 5668  15.929   5.216   4.250
  473DOPC   C3B 5669  15.880   5.172   4.550
  473DOPC   C4B 5670  15.967   5.234   4.850
  474DOPC   NC3 5671  12.054   5.265   3.050
  474DOPC   PO4 5672  11.992   5.208   3.350
  474DOPC   GL1 5673  12.060   5.234   3.650
  474DOPC   GL2 5674  11.961   5.033   3.650
  474DOPC   C1A 5675  11.985   5.221   3.950
  474DOPC   D2A 5676  11.978   5.228   4.250
  474DOPC   C3A 5677  11.986   5.228   4.550
  474DOPC   C4A 5678  11.983   5.195   4.850
  474DOPC   C1B 5679  11.902   4.864   3.950
  474DOPC   D2B 5680  11.924   4.924   4.250
  474DOPC   C3B 5681  11.906   4.904   4.550
  474DOPC   C4B 5682  11.881   4.866   4.850
  475DOPC   NC3 5683  11.023   8.114   3.050
  475DOPC   PO4 5684  11.052   8.111   3.350
  475DOPC   GL1 5685  11.001   8.065   3.650
  475DOPC   GL2 5686  11.230   8.143   3.650
  475DOPC   C1A 5687  10.989   8.054   3.950
  475DOPC   D2A 5688  11.062   8.146   4.250
  475DOPC   C3A 5689  11.068   8.063   4.550
  475DOPC   C4A 5690  11.074   8.141   4.850
  475DOPC   C1B 5691  11.380   8.142   3.950
  475DOPC   D2B 5692  11.345   8.193   4.250
  475DOPC   C3B 5693  11.395   8.171   4.550
  475DOPC   C4B 5694  11.345   8.124   4.850
  476DOPC   NC3 5695  14.274   4.916   3.050
  476DOPC   PO4 5696  14.273   4.829   3.350
  476DOPC   GL1 5697  14.279   4.871   3.650
  476DOPC   GL2 5698  14.273   5.000   3.650
  476DOPC   C1A 5699  14.307   4.906   3.950
  476DOPC   D2A 5700  14.311   4.841   4.250
  476DOPC   C3A 5701  14.296   4.852   4.550
  476DOPC   C4A 5702  14.349   4.833   4.850
  476DOPC   C1B 5703  14.264   5.258   3.950
  476DOPC   D2B 5704  14.193   5.211   4.250
  476DOPC   C3B 5705  14.218   5.180   4.550
  476DOPC   C4B 5706  14.218   5.269   4.850
  477DOPC   NC3 5707   1.920   9.024   3.050
  477DOPC   PO4 5708   1.936   9.076   3.350
  477DOPC   GL1 5709   1.889   9.076   3.650
  477DOPC   GL2 5710   1.975   8.926   3.650
  477DOPC   C1A 5711   1.931   9.104   3.950
  477DOPC   D2A 5712   1.869   9.050   4.250
  477DOPC   C3A 5713   1.899   9.051   4.550
  477DOPC   C4A 5714   1.930   9.089   4.850
  477DOPC   C1B 5715   1.994   8.748   3.950
  477DOPC   D2B 5716   2.033   8.763   4.250
  477DOPC   C3B 5717   2.037   8.728   4.550
  477DOPC   C4B 5718   2.037   8.731   4.850
  478DOPC   NC3 5719  14.998   5.181   3.050
  478DOPC   PO4 5720  14.950   5.208   3.350
  478DOPC   GL1 5721  14.980   5.229   3.650
  478DOPC   GL2 5722  15.043   5.017   3.650
  478DOPC   C1A 5723  14.981   5.219   3.950
  478DOPC   D2A 5724  14.961   5.226   4.250
  478DOPC   C3A 5725  14.940   5.181   4.550
  478DOPC   C4A 5726  14.959   5.233   4.850
  478DOPC   C1B 5727  15.103   4.863   3.950
  478DOPC   D2B 5728  15.109   4.934   4.250
  478DOPC   C3B 5729  15.146   4.893   4.550
  478DOPC   C4B 5730  15.120   4.881   4.850
  479DOPC   NC3 5731   1.121   8.694   3.050
  479DOPC   PO4 5732   1.117   8.783   3.350
  479DOPC   GL1 5733   1.084   8.695   3.650
  479DOPC   GL2 5734   1.170   8.941   3.650
  479DOPC   C1A 5735   1.167   8.700   3.950
  479DOPC   D2A 5736   1.077   8.755   4.250
  479DOPC   C3A 5737   1.116   8.711   4.550
  479DOPC   C4A 5738   1.171   8.698   4.850
  479DOPC   C1B 5739   1.292   9.070   3.950
  479DOPC   D2B 5740   1.325   9.016   4.250
  479DOPC   C3B 5741   1.278   9.078   4.550
  479DOPC   C4B 5742   1.259   9.103   4.850
  480DOPC   NC3 5743   6.452   4.194   3.050
  480DOPC   PO4 5744   6.366   4.189   3.350
  480DOPC   GL1 5745   6.370   4.249   3.650
  480DOPC   GL2 5746   6.625   4.313   3.650
  480DOPC   C1A 5747   6.381   4.253   3.950
  480DOPC   D2A 5748   6.371   4.273   4.250
  480DOPC   C3A 5749   6.464   4.243   4.550
  480DOPC   C4A 5750   6.417   4.235   4.850
  480DOPC   C1B 5751   6.738   4.336   3.950
  480DOPC   D2B 5752   6.717   4.365   4.250
  480DOPC   C3B 5753   6.758   4.369   4.550
  480DOPC   C4B 5754   6.741   4.350   4.850
  481DOPC   NC3 5755  11.180   2.608   3.050
  481DOPC   PO4 5756  11.152   2.587   3.350
  481DOPC   GL1 5757  11.206   2.562   3.650
  481DOPC   GL2 5758  11.223   2.720   3.650
  481DOPC   C1A 5759  11.161   2.544   3.950
  481DOPC   D2A 5760  11.170   2.570   4.250
  481DOPC   C3A 5761  11.229   2.577   4.550
  481DOPC   C4A 5762  11.168   2.522   4.850
  481DOPC   C1B 5763  11.196   2.966   3.950
  481DOPC   D2B 5764  11.254   2.941   4.250
  481DOPC   C3B 5765  11.204   2.960   4.550
  481DOPC   C4B 5766  11.178   2.890   4.850
  482DOPC   NC3 5767   1.009   9.609   3.050
  482DOPC   PO4 5768   1.037   9.630   3.350
  482DOPC   GL1 5769   1.040   9.596   3.650
  482DOPC   GL2 5770   1.252   9.646   3.650
  482DOPC   C1A 5771   1.044   9.612   3.950
  482DOPC   D2A 5772   1.022   9.613   4.250
  482DOPC   C3A 5773   1.023   9.664   4.550
  482DOPC   C4A 5774   1.067   9.625   4.850
  482DOPC   C1B 5775   1.390   9.671   3.950
  482DOPC   D2B 5776   1.371   9.717   4.250
  482DOPC   C3B 5777   1.406   9.675   4.550
  482DOPC   C4B 5778   1.350   9.706   4.850
  483DOPC   NC3 5779  16.627   1.079   3.050
  483DOPC   PO4 5780  16.695   0.990   3.350
  483DOPC   GL1 5781  16.621   1.082   3.650
  483DOPC   GL2 5782  16.577   1.213   3.650
  483DOPC   C1A 5783  16.695   1.071   3.950
  483DOPC   D2A 5784  16.664   1.006   4.250
  483DOPC   C3A 5785  16.612   1.012   4.550
  483DOPC   C4A 5786  16.650   1.007   4.850
  483DOPC   C1B 5787  16.543   1.401   3.950
  483DOPC   D2B 5788  16.477   1.391   4.250
  483DOPC   C3B 5789  16.551   1.366   4.550
  483DOPC   C4B 5790  16.480   1.359   4.850
  484DOPC   NC3 5791  12.169   4.186   3.050
  484DOPC   PO4 5792  12.176   4.262   3.350
  484DOPC   GL1 5793  12.181   4.216   3.650
  484DOPC   GL2 5794  12.001   4.319   3.650
  484DOPC   C1A 5795  12.110   4.284   3.950
  484DOPC   D2A 5796  12.164   4.245   4.250
  484DOPC   C3A 5797  12.120   4.266   4.550
  484DOPC   C4A 5798  12.177   4.275   4.850
  484DOPC   C1B 5799  11.765   4.296   3.950
  484DOPC   D2B 5800  11.761   4.289   4.250
  484DOPC   C3B 5801  11.808   4.369   4.550
  484DOPC   C4B 5802  11.750   4.327   4.850
  485DOPC   NC3 5803  18.763   5.670   3.050
  485DOPC   PO4 5804  18.783   5.702   3.350
  485DOPC   GL1 5805  18.757   5.668   3.650
  485DOPC   GL2 5806  18.849   5.810   3.650
  485DOPC   C1A 5807  18.822   5.692   3.950
  485DOPC   D2A 5808  18.770   5.709   4.250
  485DOPC   C3A 5809  18.835   5.634   4.550
  485DOPC   C4A 5810  18.771   5.621   4.850
  485DOPC   C1B 5811  19.027   5.928   3.950
  485DOPC   D2B 5812  19.002   5.927   4.250
  485DOPC   C3B 5813  19.007   6.016   4.550
  485DOPC   C4B 5814  19.042   5.950   4.850
  486DOPC   NC3 5815   5.699   7.219   3.050
  486DOPC   PO4 5816   5.661   7.227   3.350
  486DOPC   GL1 5817   5.706   7.265   3.650
  486DOPC   GL2 5818   5.818   7.321   3.650
  486DOPC   C1A 5819   5.633   7.257   3.950
  486DOPC   D2A 5820   5.721   7.278   4.250
  486DOPC   C3A 5821   5.648   7.242   4.550
  486DOPC   C4A 5822   5.717   7.233   4.850
  486DOPC   C1B 5823   5.919   7.427   3.950
  486DOPC   D2B 5824   5.982   7.496   4.250
  486DOPC   C3B 5825   5.948   7.488   4.550
  486DOPC   C4B 5826   5.989   7.513   4.850
  487DOPC   NC3 5827   4.989   7.977   3.050
  487DOPC   PO4 5828   4.964   8.020   3.350
  487DOPC   GL1 5829   4.977   7.997   3.650
  487DOPC   GL2 5830   5.080   8.095   3.650
  487DOPC   C1A 5831   4.925   7.971   3.950
  487DOPC   D2A 5832   4.925   8.024   4.250
  487DOPC   C3A 5833   4.920   8.026   4.550
  487DOPC   C4A 5834   4.920   7.973   4.850
  487DOPC   C1B 5835   5.152   8.282   3.950
  487DOPC   D2B 5836   5.195   8.248   4.250
  487DOPC   C3B 5837   5.118   8.239   4.550
  487DOPC   C4B 5838   5.169   8.228   4.850
  488DOPC   NC3 5839   7.498   9.647   3.050
  488DOPC   PO4 5840   7.584   9.721   3.350
  488DOPC   GL1 5841   7.577   9.673   3.650
  488DOPC   GL2 5842   7.403   9.653   3.650
  488DOPC   C1A 5843   7.580   9.647   3.950
  488DOPC   D2A 5844   7.534   9.729   4.250
  488DOPC   C3A 5845   7.518   9.667   4.550
  488DOPC   C4A 5846   7.516   9.704   4.850
  488DOPC   C1B 5847   7.157   9.654   3.950
  488DOPC   D2B 5848   7.146   9.694   4.250
  488DOPC   C3B 5849   7.201   9.604   4.550
  488DOPC   C4B 5850   7.180   9.641   4.850
  489DOPC   NC3 5851   2.847   6.424   3.050
  489DOPC   PO4 5852   2.886   6.461   3.350
  489DOPC   GL1 5853   2.796   6.466   3.650
  489DOPC   GL2 5854   2.728   6.625   3.650
  489DOPC   C1A 5855   2.832   6.473   3.950
  489DOPC   D2A 5856   2.830   6.402   4.250
  489DOPC   C3A 5857   2.812   6.422   4.550
  489DOPC   C4A 5858   2.809   6.472   4.850
  489DOPC   C1B 5859   2.684   6.773   3.950
  489DOPC   D2B 5860   2.649   6.763   4.250
  489DOPC   C3B 5861   2.650   6.704   4.550
  489DOPC   C4B 5862   2.643   6.734   4.850
  490DOPC   NC3 5863  10.385   3.682   3.050
  490DOPC   PO4 5864  10.398   3.703   3.350
  490DOPC   GL1 5865  10.405   3.656   3.650
  490DOPC   GL2 5866  10.424   3.481   3.650
  490DOPC   C1A 5867  10.433   3.655   3.950
  490DOPC   D2A 5868  10.429   3.662   4.250
  490DOPC   C3A 5869  10.432   3.648   4.550
  490DOPC   C4A 5870  10.410   3.644   4.850
  490DOPC   C1B 5871  10.491   3.373   3.950
  490DOPC   D2B 5872  10.403   3.348   4.250
  490DOPC   C3B 5873  10.392   3.382   4.550
  490DOPC   C4B 5874  10.425   3.334   4.850
  491DOPC   NC3 5875  19.529   6.689   3.050
  491DOPC   PO4 5876  19.573   6.720   3.350
  491DOPC   GL1 5877  19.569   6.705   3.650
  491DOPC   GL2 5878  19.688   6.608   3.650
  491DOPC   C1A 5879  19.510   6.684   3.950
  491DOPC   D2A 5880  19.492   6.748   4.250
  491DOPC   C3A 5881  19.542   6.727   4.550
  491DOPC   C4A 5882  19.578   6.715   4.850
  491DOPC   C1B 5883  19.838   6.461   3.950
  491DOPC   D2B 5884  19.781   6.423   4.250
  491DOPC   C3B 5885  19.752   6.497   4.550
  491DOPC   C4B 5886  19.791   6.425   4.850
  492DOPC   NC3 5887  14.421   2.013   3.050
  492DOPC   PO4 5888  14.441   1.973   3.350
  492DOPC   GL1 5889  14.474   2.020   3.650
  492DOPC   GL2 5890  14.329   1.979   3.650
  492DOPC   C1A 5891  14.494   1.960   3.950
  492DOPC   D2A 5892  14.434   2.013   4.250
  492DOPC   C3A 5893  14.430   1.973   4.550
  492DOPC   C4A 5894  14.417   1.953   4.850
  492DOPC   C1B 5895  14.119   1.917   3.950
  492DOPC   D2B 5896  14.110   1.984   4.250
  492DOPC   C3B 5897  14.140   1.914   4.550
  492DOPC   C4B 5898  14.124   1.935   4.850
  493DOPC   NC3 5899  12.668   6.454   3.050
  493DOPC   PO4 5900  12.600   6.456   3.350
  493DOPC   GL1 5901  12.665   6.430   3.650
  493DOPC   GL2 5902  12.735   6.600   3.650
  493DOPC   C1A 5903  12.628   6.412   3.950
  493DOPC   D2A 5904  12.622   6.395   4.250
  493DOPC   C3A 5905  12.656   6.425   4.550
  493DOPC   C4A 5906  12.645   6.426   4.850
  493DOPC   C1B 5907  12.799   6.743   3.950
  493DOPC   D2B 5908  12.861   6.725   4.250
  493DOPC   C3B 5909  12.823   6.695   4.550
  493DOPC   C4B 5910  12.838   6.740   4.850
  494DOPC   NC3 5911   1.058   7.446   3.050
  494DOPC   PO4 5912   1.057   7.362   3.350
  494DOPC   GL1 5913   0.993   7.427   3.650
  494DOPC   GL2 5914   1.180   7.384   3.650
  494DOPC   C1A 5915   1.048   7.360   3.950
  494DOPC   D2A 5916   1.007   7.366   4.250
  494DOPC   C3A 5917   1.001   7.376   4.550
  494DOPC   C4A 5918   1.044   7.429   4.850
  494DOPC   C1B 5919   1.374   7.284   3.950
  494DOPC   D2B 5920   1.330   7.339   4.250
  494DOPC   C3B 5921   1.371   7.275   4.550
  494DOPC   C4B 5922   1.388   7.271   4.850
  495DOPC   NC3 5923  11.856   1.252   3.050
  495DOPC   PO4 5924  11.811   1.255   3.350
  495DOPC   GL1 5925  11.771   1.258   3.650
  495DOPC   GL2 5926  12.022   1.215   3.650
  495DOPC   C1A 5927  11.780   1.256   3.950
  495DOPC   D2A 5928  11.821   1.279   4.250
  495DOPC   C3A 5929  11.836   1.289   4.550
  495DOPC   C4A 5930  11.819   1.288   4.850
  495DOPC   C1B 5931  12.155   1.111   3.950
  495DOPC   D2B 5932  12.121   1.129   4.250
  495DOPC   C3B 5933  12.158   1.078   4.550
  495DOPC   C4B 5934  12.102   1.088   4.850
  496DOPC   NC3 5935  17.197   4.283   3.050
  496DOPC   PO4 5936  17.222   4.247   3.350
  496DOPC   GL1 5937  17.162   4.257   3.650
  496DOPC   GL2 5938  17.386   4.246   3.650
  496DOPC   C1A 5939  17.182   4.239   3.950
  496DOPC   D2A 5940  17.151   4.327   4.250
  496DOPC   C3A 5941  17.161   4.247   4.550
  496DOPC   C4A 5942  17.143   4.319   4.850
  496DOPC   C1B 5943  17.578   4.293   3.950
  496DOPC   D2B 5944  17.562   4.281   4.250
  496DOPC   C3B 5945  17.491   4.253   4.550
  496DOPC   C4B 5946  17.544   4.329   4.850
  497DOPC   NC3 5947   9.570   4.911   3.050
  497DOPC   PO4 5948   9.609   4.921   3.350
  497DOPC   GL1 5949   9.594   4.904   3.650
  497DOPC   GL2 5950   9.687   5.079   3.650
  497DOPC   C1A 5951   9.606   4.909   3.950
  497DOPC   D2A 5952   9.548   4.880   4.250
  497DOPC   C3A 5953   9.596   4.890   4.550
  497DOPC   C4A 5954   9.625   4.914   4.850
  497DOPC   C1B 5955   9.748   5.248   3.950
  497DOPC   D2B 5956   9.722   5.171   4.250
  497DOPC   C3B 5957   9.764   5.230   4.550
  497DOPC   C4B 5958   9.696   5.236   4.850
  498DOPC   NC3 5959   2.521   7.373   3.050
  498DOPC   PO4 5960   2.590   7.318   3.350
  498DOPC   GL1 5961   2.538   7.337   3.650
  498DOPC   GL2 5962   2.732   7.384   3.650
  498DOPC   C1A 5963   2.538   7.394   3.950
  498DOPC   D2A 5964   2.558   7.353   4.250
  498DOPC   C3A 5965   2.603   7.392   4.550
  498DOPC   C4A 5966   2.522   7.380   4.850
  498DOPC   C1B 5967   2.913   7.412   3.950
  498DOPC   D2B 5968   2.964   7.325   4.250
  498DOPC   C3B 5969   2.884   7.367   4.550
  498DOPC   C4B 5970   2.928   7.339   4.850
  499DOPC   NC3 5971  15.134   2.102   3.050
  499DOPC   PO4 5972  15.182   2.167   3.350
  499DOPC   GL1 5973  15.168   2.086   3.650
  499DOPC   GL2 5974  15.080   2.008   3.650
  499DOPC   C1A 5975  15.148   2.109   3.950
  499DOPC   D2A 5976  15.094   2.171   4.250
  499DOPC   C3A 5977  15.090   2.096   4.550
  499DOPC   C4A 5978  15.147   2.159   4.850
  499DOPC   C1B 5979  15.003   1.843   3.950
  499DOPC   D2B 5980  14.994   1.828   4.250
  499DOPC   C3B 5981  14.927   1.832   4.550
  499DOPC   C4B 5982  14.942   1.824   4.850
  500DOPC   NC3 5983  14.885   1.322   3.050
  500DOPC   PO4 5984  14.911   1.295   3.350
  500DOPC   GL1 5985  14.860   1.266   3.650
  500DOPC   GL2 5986  15.100   1.183   3.650
  500DOPC   C1A 5987  14.892   1.308   3.950
  500DOPC   D2A 5988  14.943   1.283   4.250
  500DOPC   C3A 5989  14.855   1.347   4.550
  500DOPC   C4A 5990  14.859   1.317   4.850
  500DOPC   C1B 5991  15.223   1.147   3.950
  500DOPC   D2B 5992  15.221   1.110   4.250
  500DOPC   C3B 5993  15.180   1.066   4.550
  500DOPC   C4B 5994  15.235   1.055   4.850
  501DOPC   NC3 5995   0.301   2.676   3.050
  501DOPC   PO4 5996   0.236   2.690   3.350
  501DOPC   GL1 5997   0.272   2.638   3.650
  501DOPC   GL2 5998   0.412   2.733   3.650
  501DOPC   C1A 5999   0.328   2.655   3.950
  501DOPC   D2A 6000   0.299   2.644   4.250
  501DOPC   C3A 6001   0.328   2.604   4.550
  501DOPC   C4A 6002   0.232   2.697   4.850
  501DOPC   C1B 6003   0.608   2.794   3.950
  501DOPC   D2B 6004   0.637   2.852   4.250
  501DOPC   C3B 6005   0.577   2.792   4.550
  501DOPC   C4B 6006   0.541   2.786   4.850
  502DOPC   NC3 6007   9.621   0.579   3.050
  502DOPC   PO4 6008   9.589   0.643   3.350
  502DOPC   GL1 6009   9.633   0.552   3.650
  502DOPC   GL2 6010   9.678   0.420   3.650
  502DOPC   C1A 6011   9.574   0.573   3.950
  502DOPC   D2A 6012   9.590   0.628   4.250
  502DOPC   C3A 6013   9.639   0.629   4.550
  502DOPC   C4A 6014   9.568   0.579   4.850
  502DOPC   C1B 6015   9.777   0.222   3.950
  502DOPC   D2B 6016   9.700   0.256   4.250
  502DOPC   C3B 6017   9.713   0.251   4.550
  502DOPC   C4B 6018   9.767   0.293   4.850
  503DOPC   NC3 6019   4.929   7.228   3.050
  503DOPC   PO4 6020   4.940   7.213   3.350
  503DOPC   GL1 6021   4.894   7.212   3.650
  503DOPC   GL2 6022   5.057   7.367   3.650
  503DOPC   C1A 6023   4.906   7.237   3.950
  503DOPC   D2A 6024   4.949   7.261   4.250
  503DOPC   C3A 6025   4.905   7.182   4.550
  503DOPC   C4A 6026   4.968   7.172   4.850
  503DOPC   C1B 6027   5.209   7.465   3.950
  503DOPC   D2B 6028   5.176   7.539   4.250
  503DOPC   C3B 6029   5.160   7.537   4.550
  503DOPC   C4B 6030   5.146   7.494   4.850
  504DOPC   NC3 6031   2.149   7.469   3.050
  504DOPC   PO4 6032   2.150   7.430   3.350
  504DOPC   GL1 6033   2.175   7.425   3.650
  504DOPC   GL2 6034   2.007   7.344   3.650
  504DOPC   C1A 6035   2.105   7.427   3.950
  504DOPC   D2A 6036   2.132   7.454   4.250
  504DOPC   C3A 6037   2.174   7.416   4.550
  504DOPC   C4A 6038   2.132   7.459   4.850
  504DOPC   C1B 6039   1.864   7.298   3.950
  504DOPC   D2B 6040   1.835   7.244   4.250
  504DOPC   C3B 6041   1.777   7.314   4.550
  504DOPC   C4B 6042   1.852   7.291   4.850
  505DOPC   NC3 6043   0.596   5.962   3.050
  505DOPC   PO4 6044   0.564   5.968   3.350
  505DOPC   GL1 6045   0.508   5.926   3.650
  505DOPC   GL2 6046   0.439   5.795   3.650
  505DOPC   C1A 6047   0.583   5.978   3.950
  505DOPC   D2A 6048   0.583   5.941   4.250
  505DOPC   C3A 6049   0.588   5.987   4.550
  505DOPC   C4A 6050   0.601   5.937   4.850
  505DOPC   C1B 6051   0.275   5.717   3.950
  505DOPC   D2B 6052   0.359   5.644   4.250
  505DOPC   C3B 6053   0.277   5.715   4.550
  505DOPC   C4B 6054   0.266   5.728   4.850
  506DOPC   NC3 6055  15.211   3.377   3.050
  506DOPC   PO4 6056  15.161   3.427   3.350
  506DOPC   GL1 6057  15.173   3.414   3.650
  506DOPC   GL2 6058  15.045   3.519   3.650
  506DOPC   C1A 6059  15.222   3.443   3.950
  506DOPC   D2A 6060  15.216   3.375   4.250
  506DOPC   C3A 6061  15.181   3.406   4.550
  506DOPC   C4A 6062  15.167   3.459   4.850
  506DOPC   C1B 6063  14.934   3.612   3.950
  506DOPC   D2B 6064  14.866   3.627   4.250
  506DOPC   C3B 6065  14.886   3.623   4.550
  506DOPC   C4B 6066  14.879   3.623   4.850
  507DOPC   NC3 6067  17.256   0.531   3.050
  507DOPC   PO4 6068  17.268   0.594   3.350
  507DOPC   GL1 6069  17.251   0.557   3.650
  507DOPC   GL2 6070  17.403   0.443   3.650
  507DOPC   C1A 6071  17.219   0.506   3.950
  507DOPC   D2A 6072  17.192   0.533   4.250
  507DOPC   C3A 6073  17.191   0.539   4.550
  507DOPC   C4A 6074  17.197   0.535   4.850
  507DOPC   C1B 6075  17.513   0.350   3.950
  507DOPC   D2B 6076  17.449   0.350   4.250
  507DOPC   C3B 6077  17.444   0.325   4.550
  507DOPC   C4B 6078  17.521   0.317   4.850
  508DOPC   NC3 6079  14.130   7.479   3.050
  508DOPC   PO4 6080  14.123   7.430   3.350
  508DOPC   GL1 6081  14.190   7.478   3.650
  508DOPC   GL2 6082  14.273   7.388   3.650
  508DOPC   C1A 6083  14.181   7.425   3.950
  508DOPC   D2A 6084  14.188   7.461   4.250
  508DOPC   C3A 6085  14.139   7.521   4.550
  508DOPC   C4A 6086  14.120   7.498   4.850
  508DOPC   C1B 6087  14.370   7.253   3.950
  508DOPC   D2B 6088  14.464   7.289   4.250
  508DOPC   C3B 6089  14.375   7.284   4.550
  508DOPC   C4B 6090  14.423   7.230   4.850
  509DOPC   NC3 6091  10.555   9.470   3.050
  509DOPC   PO4 6092  10.509   9.549   3.350
  509DOPC   GL1 6093  10.542   9.504   3.650
  509DOPC   GL2 6094  10.431   9.651   3.650
  509DOPC   C1A 6095  10.485   9.480   3.950
  509DOPC   D2A 6096  10.553   9.520   4.250
  509DOPC   C3A 6097  10.511   9.509   4.550
  509DOPC   C4A 6098  10.581   9.492   4.850
  509DOPC   C1B 6099  10.320   9.855   3.950
  509DOPC   D2B 6100  10.302   9.792   4.250
  509DOPC   C3B 6101  10.368   9.775   4.550
  509DOPC   C4B 6102  10.287   9.769   4.850
  510DOPC   NC3 6103   9.860   4.164   3.050
  510DOPC   PO4 6104   9.804   4.187   3.350
  510DOPC   GL1 6105   9.791   4.186   3.650
  510DOPC   GL2 6106   9.664   4.295   3.650
  510DOPC   C1A 6107   9.855   4.172   3.950
  510DOPC   D2A 6108   9.779   4.156   4.250
  510DOPC   C3A 6109   9.769   4.216   4.550
  510DOPC   C4A 6110   9.821   4.171   4.850
  510DOPC   C1B 6111   9.534   4.391   3.950
  510DOPC   D2B 6112   9.476   4.334   4.250
  510DOPC   C3B 6113   9.492   4.404   4.550
  510DOPC   C4B 6114   9.487   4.430   4.850
  511DOPC   NC3 6115   7.552   2.773   3.050
  511DOPC   PO4 6116   7.546   2.778   3.350
  511DOPC   GL1 6117   7.490   2.784   3.650
  511DOPC   GL2 6118   7.345   2.720   3.650
  511DOPC   C1A 6119   7.585   2.701   3.950
  511DOPC   D2A 6120   7.535   2.720   4.250
  511DOPC   C3A 6121   7.554   2.773   4.550
  511DOPC   C4A 6122   7.512   2.791   4.850
  511DOPC   C1B 6123   7.221   2.775   3.950
  511DOPC   D2B 6124   7.165   2.724   4.250
  511DOPC   C3B 6125   7.220   2.753   4.550
  511DOPC   C4B 6126   7.160   2.703   4.850
  512DOPC   NC3 6127   8.246   9.490   3.050
  512DOPC   PO4 6128   8.205   9.562   3.350
  512DOPC   GL1 6129   8.263   9.514   3.650
  512DOPC   GL2 6130   8.163   9.636   3.650
  512DOPC   C1A 6131   8.221   9.537   3.950
  512DOPC   D2A 6132   8.211   9.481   4.250
  512DOPC   C3A 6133   8.245   9.559   4.550
  512DOPC   C4A 6134   8.257   9.562   4.850
  512DOPC   C1B 6135   8.046   9.783   3.950
  512DOPC   D2B 6136   8.051   9.810   4.250
  512DOPC   C3B 6137   7.982   9.775   4.550
  512DOPC   C4B 6138   8.019   9.850   4.850
  513DOPC   NC3 6139   4.956   9.057   3.050
  513DOPC   PO4 6140   4.986   9.051   3.350
  513DOPC   GL1 6141   5.026   9.095   3.650
  513DOPC   GL2 6142   5.008   8.853   3.650
  513DOPC   C1A 6143   4.941   9.088   3.950
  513DOPC   D2A 6144   5.023   9.020   4.250
  513DOPC   C3A 6145   5.008   9.093   4.550
  513DOPC   C4A 6146   4.954   9.057   4.850
  513DOPC   C1B 6147   5.153   8.781   3.950
  513DOPC   D2B 6148   5.139   8.705   4.250
  513DOPC   C3B 6149   5.131   8.758   4.550
  513DOPC   C4B 6150   5.113   8.709   4.850
  514DOPC   NC3 6151   7.307   0.254   3.050
  514DOPC   PO4 6152   7.227   0.279   3.350
  514DOPC   GL1 6153   7.289   0.287   3.650
  514DOPC   GL2 6154   7.385   0.409   3.650
  514DOPC   C1A 6155   7.225   0.303   3.950
  514DOPC   D2A 6156   7.297   0.330   4.250
  514DOPC   C3A 6157   7.297   0.310   4.550
  514DOPC   C4A 6158   7.246   0.263   4.850
  514DOPC   C1B 6159   7.490   0.563   3.950
  514DOPC   D2B 6160   7.460   0.581   4.250
  514DOPC   C3B 6161   7.452   0.601   4.550
  514DOPC   C4B 6162   7.420   0.622   4.850
  515DOPC   NC3 6163   0.557   1.111   3.050
  515DOPC   PO4 6164   0.553   1.078   3.350
  515DOPC   GL1 6165   0.528   1.051   3.650
  515DOPC   GL2 6166   0.409   1.205   3.650
  515DOPC   C1A 6167   0.548   1.107   3.950
  515DOPC   D2A 6168   0.599   1.063   4.250
  515DOPC   C3A 6169   0.585   1.098   4.550
  515DOPC   C4A 6170   0.541   1.086   4.850
  515DOPC   C1B 6171   0.294   1.304   3.950
  515DOPC   D2B 6172   0.320   1.328   4.250
  515DOPC   C3B 6173   0.301   1.346   4.550
  515DOPC   C4B 6174   0.318   1.358   4.850
  516DOPC   NC3 6175   4.383   7.962   3.050
  516DOPC   PO4 6176   4.333   8.012   3.350
  516DOPC   GL1 6177   4.403   7.974   3.650
  516DOPC   GL2 6178   4.290   8.097   3.650
  516DOPC   C1A 6179   4.350   7.937   3.950
  516DOPC   D2A 6180   4.358   7.928   4.250
  516DOPC   C3A 6181   4.382   7.964   4.550
  516DOPC   C4A 6182   4.390   7.938   4.850
  516DOPC   C1B 6183   4.216   8.310   3.950
  516DOPC   D2B 6184   4.226   8.253   4.250
  516DOPC   C3B 6185   4.244   8.249   4.550
  516DOPC   C4B 6186   4.213   8.310   4.850
  517DOPC   NC3 6187   8.193   6.021   3.050
  517DOPC   PO4 6188   8.163   6.018   3.350
  517DOPC   GL1 6189   8.141   6.019   3.650
  517DOPC   GL2 6190   8.151   5.795   3.650
  517DOPC   C1A 6191   8.154   6.029   3.950
  517DOPC   D2A 6192   8.189   5.980   4.250
  517DOPC   C3A 6193   8.199   5.969   4.550
  517DOPC   C4A 6194   8.138   5.998   4.850
  517DOPC   C1B 6195   8.116   5.641   3.950
  517DOPC   D2B 6196   8.113   5.687   4.250
  517DOPC   C3B 6197   8.022   5.647   4.550
  517DOPC   C4B 6198   8.095   5.644   4.850
  518DOPC   NC3 6199  11.124   1.837   3.050
  518DOPC   PO4 6200  11.111   1.832   3.350
  518DOPC   GL1 6201  11.129   1.855   3.650
  518DOPC   GL2 6202  11.177   1.991   3.650
  518DOPC   C1A 6203  11.100   1.817   3.950
  518DOPC   D2A 6204  11.082   1.860   4.250
  518DOPC   C3A 6205  11.065   1.829   4.550
  518DOPC   C4A 6206  11.049   1.797   4.850
  518DOPC   C1B 6207  11.351   2.120   3.950
  518DOPC   D2B 6208  11.361   2.161   4.250
  518DOPC   C3B 6209  11.321   2.133   4.550
  518DOPC   C4B 6210  11.353   2.141   4.850
  519DOPC   NC3 6211  12.914   7.398   3.050
  519DOPC   PO4 6212  12.936   7.370   3.350
  519DOPC   GL1 6213  12.933   7.409   3.650
  519DOPC   GL2 6214  12.697   7.345   3.650
  519DOPC   C1A 6215  12.957   7.363   3.950
  519DOPC   D2A 6216  12.889   7.394   4.250
  519DOPC   C3A 6217  12.886   7.403   4.550
  519DOPC   C4A 6218  12.922   7.422   4.850
  519DOPC   C1B 6219  12.540   7.344   3.950
  519DOPC   D2B 6220  12.557   7.299   4.250
  519DOPC   C3B 6221  12.601   7.313   4.550
  519DOPC   C4B 6222  12.568   7.312   4.850
  520DOPC   NC3 6223   7.956   1.146   3.050
  520DOPC   PO4 6224   7.937   1.142   3.350
  520DOPC   GL1 6225   7.971   1.214   3.650
  520DOPC   GL2 6226   8.170   1.174   3.650
  520DOPC   C1A 6227   7.982   1.148   3.950
  520DOPC   D2A 6228   7.989   1.207   4.250
  520DOPC   C3A 6229   7.943   1.170   4.550
  520DOPC   C4A 6230   7.906   1.179   4.850
  520DOPC   C1B 6231   8.268   1.237   3.950
  520DOPC   D2B 6232   8.307   1.233   4.250
  520DOPC   C3B 6233   8.314   1.194   4.550
  520DOPC   C4B 6234   8.344   1.290   4.850
  521DOPC   NC3 6235  13.670   3.432   3.050
  521DOPC   PO4 6236  13.671   3.466   3.350
  521DOPC   GL1 6237  13.675   3.461   3.650
  521DOPC   GL2 6238  13.481   3.499   3.650
  521DOPC   C1A 6239  13.688   3.446   3.950
  521DOPC   D2A 6240  13.682   3.377   4.250
  521DOPC   C3A 6241  13.687   3.465   4.550
  521DOPC   C4A 6242  13.666   3.473   4.850
  521DOPC   C1B 6243  13.405   3.585   3.950
  521DOPC   D2B 6244  13.393   3.566   4.250
  521DOPC   C3B 6245  13.308   3.634   4.550
  521DOPC   C4B 6246  13.366   3.630   4.850
  522DOPC   NC3 6247   7.516   8.124   3.050
  522DOPC   PO4 6248   7.523   8.103   3.350
  522DOPC   GL1 6249   7.582   8.124   3.650
  522DOPC   GL2 6250   7.344   8.145   3.650
  522DOPC   C1A 6251   7.525   8.141   3.950
  522DOPC   D2A 6252   7.496   8.185   4.250
  522DOPC   C3A 6253   7.516   8.192   4.550
  522DOPC   C4A 6254   7.536   8.181   4.850
  522DOPC   C1B 6255   7.143   8.074   3.950
  522DOPC   D2B 6256   7.195   8.119   4.250
  522DOPC   C3B 6257   7.146   8.105   4.550
  522DOPC   C4B 6258   7.204   8.086   4.850
  523DOPC   NC3 6259   4.315   1.020   3.050
  523DOPC   PO4 6260   4.281   1.006   3.350
  523DOPC   GL1 6261   4.239   1.010   3.650
  523DOPC   GL2 6262   4.320   1.195   3.650
  523DOPC   C1A 6263   4.282   0.996   3.950
  523DOPC   D2A 6264   4.309   1.057   4.250
  523DOPC   C3A 6265   4.327   0.977   4.550
  523DOPC   C4A 6266   4.327   1.012   4.850
  523DOPC   C1B 6267   4.249   1.352   3.950
  523DOPC   D2B 6268   4.322   1.376   4.250
  523DOPC   C3B 6269   4.248   1.418   4.550
  523DOPC   C4B 6270   4.265   1.389   4.850
  524DOPC   NC3 6271  15.643   6.539   3.050
  524DOPC   PO4 6272  15.647   6.511   3.350
  524DOPC   GL1 6273  15.617   6.583   3.650
  524DOPC   GL2 6274  15.858   6.613   3.650
  524DOPC   C1A 6275  15.597   6.511   3.950
  524DOPC   D2A 6276  15.665   6.538   4.250
  524DOPC   C3A 6277  15.636   6.563   4.550
  524DOPC   C4A 6278  15.626   6.503   4.850
  524DOPC   C1B 6279  16.011   6.667   3.950
  524DOPC   D2B 6280  15.981   6.641   4.250
  524DOPC   C3B 6281  16.026   6.665   4.550
  524DOPC   C4B 6282  16.013   6.634   4.850
  525DOPC   NC3 6283   2.873   1.408   3.050
  525DOPC   PO4 6284   2.837   1.406   3.350
  525DOPC   GL1 6285   2.782   1.329   3.650
  525DOPC   GL2 6286   2.769   1.205   3.650
  525DOPC   C1A 6287   2.813   1.367   3.950
  525DOPC   D2A 6288   2.816   1.336   4.250
  525DOPC   C3A 6289   2.859   1.343   4.550
  525DOPC   C4A 6290   2.824   1.322   4.850
  525DOPC   C1B 6291   2.637   1.033   3.950
  525DOPC   D2B 6292   2.619   1.006   4.250
  525DOPC   C3B 6293   2.660   1.018   4.550
  525DOPC   C4B 6294   2.609   1.074   4.850
  526DOPC   NC3 6295   2.062   1.090   3.050
  526DOPC   PO4 6296   2.002   1.011   3.350
  526DOPC   GL1 6297   2.082   1.075   3.650
  526DOPC   GL2 6298   1.999   1.210   3.650
  526DOPC   C1A 6299   2.063   1.028   3.950
  526DOPC   D2A 6300   2.018   1.043   4.250
  526DOPC   C3A 6301   2.047   1.048   4.550
  526DOPC   C4A 6302   2.015   1.038   4.850
  526DOPC   C1B 6303   1.914   1.366   3.950
  526DOPC   D2B 6304   1.951   1.368   4.250
  526DOPC   C3B 6305   1.891   1.397   4.550
  526DOPC   C4B 6306   1.857   1.352   4.850
  527DOPC   NC3 6307   8.061   2.543   3.050
  527DOPC   PO4 6308   8.053   2.615   3.350
  527DOPC   GL1 6309   8.137   2.600   3.650
  527DOPC   GL2 6310   8.080   2.705   3.650
  527DOPC   C1A 6311   8.113   2.614   3.950
  527DOPC   D2A 6312   8.069   2.575   4.250
  527DOPC   C3A 6313   8.118   2.586   4.550
  527DOPC   C4A 6314   8.132   2.552   4.850
  527DOPC   C1B 6315   8.105   2.893   3.950
  527DOPC   D2B 6316   8.130   2.959   4.250
  527DOPC   C3B 6317   8.119   2.880   4.550
  527DOPC   C4B 6318   8.180   2.952   4.850
  528DOPC   NC3 6319  19.706   1.415   3.050
  528DOPC   PO4 6320  19.643   1.336   3.350
  528DOPC   GL1 6321  19.670   1.341   3.650
  528DOPC   GL2 6322  19.709   1.198   3.650
  528DOPC   C1A 6323  19.660   1.366   3.950
  528DOPC   D2A 6324  19.663   1.419   4.250
  528DOPC   C3A 6325  19.676   1.337   4.550
  528DOPC   C4A 6326  19.686   1.359   4.850
  528DOPC   C1B 6327  19.615   1.057   3.950
  528DOPC   D2B 6328  19.658   0.999   4.250
  528DOPC   C3B 6329  19.657   1.049   4.550
  528DOPC   C4B 6330  19.655   1.064   4.850
  529DOPC   NC3 6331  10.258   2.664   3.050
  529DOPC   PO4 6332  10.249   2.633   3.350
  529DOPC   GL1 6333  10.317   2.689   3.650
  529DOPC   GL2 6334  10.468   2.707   3.650
  529DOPC   C1A 6335  10.260   2.660   3.950
  529DOPC   D2A 6336  10.274   2.620   4.250
  529DOPC   C3A 6337  10.222   2.626   4.550
  529DOPC   C4A 6338  10.310   2.631   4.850
  529DOPC   C1B 6339  10.611   2.775   3.950
  529DOPC   D2B 6340  10.594   2.783   4.250
  529DOPC   C3B 6341  10.614   2.828   4.550
  529DOPC   C4B 6342  10.640   2.836   4.850
  530DOPC   NC3 6343   8.960   7.184   3.050
  530DOPC   PO4 6344   8.938   7.225   3.350
  530DOPC   GL1 6345   9.020   7.149   3.650
  530DOPC   GL2 6346   8.889   7.345   3.650
  530DOPC   C1A 6347   8.943   7.166   3.950
  530DOPC   D2A 6348   8.946   7.232   4.250
  530DOPC   C3A 6349   8.932   7.192   4.550
  530DOPC   C4A 6350   8.962   7.161   4.850
  530DOPC   C1B 6351   8.802   7.517   3.950
  530DOPC   D2B 6352   8.853   7.497   4.250
  530DOPC   C3B 6353   8.817   7.482   4.550
  530DOPC   C4B 6354   8.869   7.499   4.850
  531DOPC   NC3 6355  11.947   8.718   3.050
  531DOPC   PO4 6356  11.901   8.699   3.350
  531DOPC   GL1 6357  11.888   8.745   3.650
  531DOPC   GL2 6358  11.966   8.860   3.650
  531DOPC   C1A 6359  11.906   8.735   3.950
  531DOPC   D2A 6360  11.956   8.723   4.250
  531DOPC   C3A 6361  11.879   8.679   4.550
  531DOPC   C4A 6362  11.937   8.715   4.850
  531DOPC   C1B 6363  12.015   9.033   3.950
  531DOPC   D2B 6364  11.987   9.023   4.250
  531DOPC   C3B 6365  11.997   9.083   4.550
  531DOPC   C4B 6366  12.030   9.015   4.850
  532DOPC   NC3 6367   4.866   4.276   3.050
  532DOPC   PO4 6368   4.922   4.216   3.350
  532DOPC   GL1 6369   4.905   4.283   3.650
  532DOPC   GL2 6370   5.082   4.319   3.650
  532DOPC   C1A 6371   4.851   4.252   3.950
  532DOPC   D2A 6372   4.867   4.264   4.250
  532DOPC   C3A 6373   4.885   4.278   4.550
  532DOPC   C4A 6374   4.923   4.232   4.850
  532DOPC   C1B 6375   5.177   4.346   3.950
  532DOPC   D2B 6376   5.271   4.335   4.250
  532DOPC   C3B 6377   5.179   4.356   4.550
  532DOPC   C4B 6378   5.184   4.321   4.850
  533DOPC   NC3 6379  12.861   1.139   3.050
  533DOPC   PO4 6380  12.905   1.149   3.350
  533DOPC   GL1 6381  12.951   1.121   3.650
  533DOPC   GL2 6382  12.764   1.181   3.650
  533DOPC   C1A 6383  12.894   1.163   3.950
  533DOPC   D2A 6384  12.940   1.082   4.250
  533DOPC   C3A 6385  12.874   1.101   4.550
  533DOPC   C4A 6386  12.937   1.154   4.850
  533DOPC   C1B 6387  12.572   1.291   3.950
  533DOPC   D2B 6388  12.614   1.231   4.250
  533DOPC   C3B 6389  12.620   1.321   4.550
  533DOPC   C4B 6390  12.591   1.305   4.850
  534DOPC   NC3 6391  19.842   4.177   3.050
  534DOPC   PO4 6392  19.808   4.181   3.350
  534DOPC   GL1 6393  19.846   4.159   3.650
  534DOPC   GL2 6394  19.637   4.310   3.650
  534DOPC   C1A 6395  19.850   4.177   3.950
  534DOPC   D2A 6396  19.801   4.189   4.250
  534DOPC   C3A 6397  19.868   4.163   4.550
  534DOPC   C4A 6398  19.789   4.145   4.850
  534DOPC   C1B 6399  19.496   4.377   3.950
  534DOPC   D2B 6400  19.501   4.390   4.250
  534DOPC   C3B 6401  19.553   4.329   4.550
  534DOPC   C4B 6402  19.560   4.364   4.850
  535DOPC   NC3 6403  10.275   6.568   3.050
  535DOPC   PO4 6404  10.229   6.589   3.350
  535DOPC   GL1 6405  10.208   6.601   3.650
  535DOPC   GL2 6406  10.466   6.555   3.650
  535DOPC   C1A 6407  10.215   6.565   3.950
  535DOPC   D2A 6408  10.214   6.591   4.250
  535DOPC   C3A 6409  10.251   6.552   4.550
  535DOPC   C4A 6410  10.266   6.538   4.850
  535DOPC   C1B 6411  10.582   6.598   3.950
  535DOPC   D2B 6412  10.571   6.572   4.250
  535DOPC   C3B 6413  10.565   6.640   4.550
  535DOPC   C4B 6414  10.646   6.558   4.850
  536DOPC   NC3 6415   8.261   0.473   3.050
  536DOPC   PO4 6416   8.278   0.493   3.350
  536DOPC   GL1 6417   8.323   0.466   3.650
  536DOPC   GL2 6418   8.135   0.425   3.650
  536DOPC   C1A 6419   8.350   0.463   3.950
  536DOPC   D2A 6420   8.283   0.437   4.250
  536DOPC   C3A 6421   8.346   0.442   4.550
  536DOPC   C4A 6422   8.321   0.463   4.850
  536DOPC   C1B 6423   7.973   0.404   3.950
  536DOPC   D2B 6424   7.905   0.429   4.250
  536DOPC   C3B 6425   7.969   0.445   4.550
  536DOPC   C4B 6426   7.915   0.418   4.850
  537DOPC   NC3 6427   1.811   9.726   3.050
  537DOPC   PO4 6428   1.787   9.753   3.350
  537DOPC   GL1 6429   1.771   9.781   3.650
  537DOPC   GL2 6430   1.968   9.671   3.650
  537DOPC   C1A 6431   1.841   9.776   3.950
  537DOPC   D2A 6432   1.858   9.724   4.250
  537DOPC   C3A 6433   1.821   9.694   4.550
  537DOPC   C4A 6434   1.788   9.709   4.850
  537DOPC   C1B 6435   2.166   9.548   3.950
  537DOPC   D2B 6436   2.161   9.566   4.250
  537DOPC   C3B 6437   2.173   9.599   4.550
  537DOPC   C4B 6438   2.170   9.563   4.850
  538DOPC   NC3 6439   5.222   6.642   3.050
  538DOPC   PO4 6440   5.200   6.654   3.350
  538DOPC   GL1 6441   5.148   6.692   3.650
  538DOPC   GL2 6442   5.098   6.567   3.650
  538DOPC   C1A 6443   5.222   6.721   3.950
  538DOPC   D2A 6444   5.170   6.685   4.250
  538DOPC   C3A 6445   5.186   6.667   4.550
  538DOPC   C4A 6446   5.185   6.711   4.850
  538DOPC   C1B 6447   4.895   6.460   3.950
  538DOPC   D2B 6448   4.946   6.485   4.250
  538DOPC   C3B 6449   4.882   6.446   4.550
  538DOPC   C4B 6450   4.951   6.488   4.850
  539DOPC   NC3 6451  16.738   5.140   3.050
  539DOPC   PO4 6452  16.765   5.158   3.350
  539DOPC   GL1 6453  16.749   5.166   3.650
  539DOPC   GL2 6454  16.586   5.021   3.650
  539DOPC   C1A 6455  16.727   5.172   3.950
  539DOPC   D2A 6456  16.719   5.142   4.250
  539DOPC   C3A 6457  16.769   5.109   4.550
  539DOPC   C4A 6458  16.731   5.148   4.850
  539DOPC   C1B 6459  16.436   4.959   3.950
  539DOPC   D2B 6460  16.398   4.996   4.250
  539DOPC   C3B 6461  16.446   4.991   4.550
  539DOPC   C4B 6462  16.452   4.990   4.850
  540DOPC   NC3 6463   6.644   1.071   3.050
  540DOPC   PO4 6464   6.686   1.062   3.350
  540DOPC   GL1 6465   6.619   1.060   3.650
  540DOPC   GL2 6466   6.563   1.244   3.650
  540DOPC   C1A 6467   6.620   1.024   3.950
  540DOPC   D2A 6468   6.660   1.008   4.250
  540DOPC   C3A 6469   6.701   0.991   4.550
  540DOPC   C4A 6470   6.702   1.018   4.850
  540DOPC   C1B 6471   6.507   1.395   3.950
  540DOPC   D2B 6472   6.535   1.411   4.250
  540DOPC   C3B 6473   6.479   1.416   4.550
  540DOPC   C4B 6474   6.520   1.389   4.850
  541DOPC   NC3 6475   8.783   3.665   3.050
  541DOPC   PO4 6476   8.857   3.697   3.350
  541DOPC   GL1 6477   8.854   3.682   3.650
  541DOPC   GL2 6478   8.929   3.477   3.650
  541DOPC   C1A 6479   8.870   3.639   3.950
  541DOPC   D2A 6480   8.809   3.705   4.250
  541DOPC   C3A 6481   8.862   3.664   4.550
  541DOPC   C4A 6482   8.855   3.653   4.850
  541DOPC   C1B 6483   8.984   3.297   3.950
  541DOPC   D2B 6484   8.915   3.389   4.250
  541DOPC   C3B 6485   9.013   3.338   4.550
  541DOPC   C4B 6486   9.007   3.331   4.850
  542DOPC   NC3 6487   4.432   3.408   3.050
  542DOPC   PO4 6488   4.344   3.356   3.350
  542DOPC   GL1 6489   4.387   3.336   3.650
  542DOPC   GL2 6490   4.298   3.555   3.650
  542DOPC   C1A 6491   4.384   3.369   3.950
  542DOPC   D2A 6492   4.359   3.359   4.250
  542DOPC   C3A 6493   4.339   3.395   4.550
  542DOPC   C4A 6494   4.396   3.347   4.850
  542DOPC   C1B 6495   4.164   3.687   3.950
  542DOPC   D2B 6496   4.180   3.636   4.250
  542DOPC   C3B 6497   4.173   3.617   4.550
  542DOPC   C4B 6498   4.173   3.674   4.850
  543DOPC   NC3 6499   9.770   2.602   3.050
  543DOPC   PO4 6500   9.713   2.543   3.350
  543DOPC   GL1 6501   9.733   2.571   3.650
  543DOPC   GL2 6502   9.636   2.707   3.650
  543DOPC   C1A 6503   9.763   2.609   3.950
  543DOPC   D2A 6504   9.693   2.535   4.250
  543DOPC   C3A 6505   9.764   2.600   4.550
  543DOPC   C4A 6506   9.739   2.575   4.850
  543DOPC   C1B 6507   9.563   2.919   3.950
  543DOPC   D2B 6508   9.633   2.887   4.250
  543DOPC   C3B 6509   9.615   2.907   4.550
  543DOPC   C4B 6510   9.560   2.859   4.850
  544DOPC   NC3 6511  14.065   0.389   3.050
  544DOPC   PO4 6512  14.080   0.451   3.350
  544DOPC   GL1 6513  14.062   0.393   3.650
  544DOPC   GL2 6514  14.263   0.388   3.650
  544DOPC   C1A 6515  14.087   0.385   3.950
  544DOPC   D2A 6516  14.110   0.468   4.250
  544DOPC   C3A 6517  14.102   0.372   4.550
  544DOPC   C4A 6518  14.057   0.380   4.850
  544DOPC   C1B 6519  14.418   0.404   3.950
  544DOPC   D2B 6520  14.435   0.412   4.250
  544DOPC   C3B 6521  14.468   0.460   4.550
  544DOPC   C4B 6522  14.420   0.436   4.850
  545DOPC   NC3 6523   2.832   5.681   3.050
  545DOPC   PO4 6524   2.847   5.715   3.350
  545DOPC   GL1 6525   2.828   5.645   3.650
  545DOPC   GL2 6526   2.759   5.849   3.650
  545DOPC   C1A 6527   2.823   5.644   3.950
  545DOPC   D2A 6528   2.800   5.713   4.250
  545DOPC   C3A 6529   2.795   5.670   4.550
  545DOPC   C4A 6530   2.889   5.668   4.850
  545DOPC   C1B 6531   2.677   5.936   3.950
  545DOPC   D2B 6532   2.673   6.009   4.250
  545DOPC   C3B 6533   2.647   5.937   4.550
  545DOPC   C4B 6534   2.649   5.974   4.850
  546DOPC   NC3 6535   6.670   0.586   3.050
  546DOPC   PO4 6536   6.653   0.584   3.350
  546DOPC   GL1 6537   6.691   0.582   3.650
  546DOPC   GL2 6538   6.621   0.471   3.650
  546DOPC   C1A 6539   6.667   0.579   3.950
  546DOPC   D2A 6540   6.712   0.584   4.250
  546DOPC   C3A 6541   6.714   0.573   4.550
  546DOPC   C4A 6542   6.651   0.573   4.850
  546DOPC   C1B 6543   6.530   0.240   3.950
  546DOPC   D2B 6544   6.453   0.261   4.250
  546DOPC   C3B 6545   6.470   0.297   4.550
  546DOPC   C4B 6546   6.500   0.276   4.850
  547DOPC   NC3 6547  12.609   5.781   3.050
  547DOPC   PO4 6548  12.597   5.713   3.350
  547DOPC   GL1 6549  12.591   5.745   3.650
  547DOPC   GL2 6550  12.766   5.803   3.650
  547DOPC   C1A 6551  12.568   5.785   3.950
  547DOPC   D2A 6552  12.602   5.749   4.250
  547DOPC   C3A 6553  12.551   5.788   4.550
  547DOPC   C4A 6554  12.578   5.781   4.850
  547DOPC   C1B 6555  12.871   5.945   3.950
  547DOPC   D2B 6556  12.931   5.885   4.250
  547DOPC   C3B 6557  12.899   5.875   4.550
  547DOPC   C4B 6558  12.914   5.882   4.850
  548DOPC   NC3 6559  17.256   2.571   3.050
  548DOPC   PO4 6560  17.240   2.589   3.350
  548DOPC   GL1 6561  17.242   2.592   3.650
  548DOPC   GL2 6562  17.349   2.770   3.650
  548DOPC   C1A 6563  17.293   2.536   3.950
  548DOPC   D2A 6564  17.234   2.587   4.250
  548DOPC   C3A 6565  17.270   2.573   4.550
  548DOPC   C4A 6566  17.286   2.606   4.850
  548DOPC   C1B 6567  17.453   2.858   3.950
  548DOPC   D2B 6568  17.402   2.936   4.250
  548DOPC   C3B 6569  17.399   2.871   4.550
  548DOPC   C4B 6570  17.463   2.921   4.850
  549DOPC   NC3 6571   3.652   7.441   3.050
  549DOPC   PO4 6572   3.657   7.462   3.350
  549DOPC   GL1 6573   3.681   7.414   3.650
  549DOPC   GL2 6574   3.543   7.313   3.650
  549DOPC   C1A 6575   3.670   7.404   3.950
  549DOPC   D2A 6576   3.650   7.395   4.250
  549DOPC   C3A 6577   3.632   7.476   4.550
  549DOPC   C4A 6578   3.713   7.437   4.850
  549DOPC   C1B 6579   3.360   7.272   3.950
  549DOPC   D2B 6580   3.314   7.257   4.250
  549DOPC   C3B 6581   3.374   7.251   4.550
  549DOPC   C4B 6582   3.341   7.273   4.850
  550DOPC   NC3 6583  14.302   9.804   3.050
  550DOPC   PO4 6584  14.248   9.879   3.350
  550DOPC   GL1 6585  14.250   9.883   3.650
  550DOPC   GL2 6586  14.264   9.678   3.650
  550DOPC   C1A 6587  14.271   9.799   3.950
  550DOPC   D2A 6588  14.262   9.819   4.250
  550DOPC   C3A 6589  14.302   9.799   4.550
  550DOPC   C4A 6590  14.300   9.861   4.850
  550DOPC   C1B 6591  14.323   9.453   3.950
  550DOPC   D2B 6592  14.280   9.446   4.250
  550DOPC   C3B 6593  14.285   9.526   4.550
  550DOPC   C4B 6594  14.314   9.453   4.850
  551DOPC   NC3 6595  17.515   7.430   3.050
  551DOPC   PO4 6596  17.496   7.456   3.350
  551DOPC   GL1 6597  17.543   7.480   3.650
  551DOPC   GL2 6598  17.381   7.386   3.650
  551DOPC   C1A 6599  17.551   7.404   3.950
  551DOPC   D2A 6600  17.469   7.458   4.250
  551DOPC   C3A 6601  17.540   7.403   4.550
  551DOPC   C4A 6602  17.554   7.449   4.850
  551DOPC   C1B 6603  17.161   7.230   3.950
  551DOPC   D2B 6604  17.164   7.224   4.250
  551DOPC   C3B 6605  17.202   7.263   4.550
  551DOPC   C4B 6606  17.204   7.292   4.850
  552DOPC   NC3 6607   5.117   4.880   3.050
  552DOPC   PO4 6608   5.066   4.926   3.350
  552DOPC   GL1 6609   5.090   4.869   3.650
  552DOPC   GL2 6610   5.035   5.023   3.650
  552DOPC   C1A 6611   5.104   4.917   3.950
  552DOPC   D2A 6612   5.129   4.925   4.250
  552DOPC   C3A 6613   5.111   4.917   4.550
  552DOPC   C4A 6614   5.142   4.839   4.850
  552DOPC   C1B 6615   4.970   5.269   3.950
  552DOPC   D2B 6616   5.025   5.194   4.250
  552DOPC   C3B 6617   5.019   5.209   4.550
  552DOPC   C4B 6618   5.023   5.204   4.850
  553DOPC   NC3 6619  17.223   9.507   3.050
  553DOPC   PO4 6620  17.223   9.533   3.350
  553DOPC   GL1 6621  17.265   9.572   3.650
  553DOPC   GL2 6622  17.394   9.689   3.650
  553DOPC   C1A 6623  17.184   9.587   3.950
  553DOPC   D2A 6624  17.229   9.536   4.250
  553DOPC   C3A 6625  17.250   9.536   4.550
  553DOPC   C4A 6626  17.226   9.537   4.850
  553DOPC   C1B 6627  17.478   9.763   3.950
  553DOPC   D2B 6628  17.530   9.776   4.250
  553DOPC   C3B 6629  17.506   9.827   4.550
  553DOPC   C4B 6630  17.448   9.784   4.850
  554DOPC   NC3 6631  12.630   8.785   3.050
  554DOPC   PO4 6632  12.602   8.815   3.350
  554DOPC   GL1 6633  12.570   8.787   3.650
  554DOPC   GL2 6634  12.777   8.879   3.650
  554DOPC   C1A 6635  12.629   8.818   3.950
  554DOPC   D2A 6636  12.580   8.782   4.250
  554DOPC   C3A 6637  12.635   8.792   4.550
  554DOPC   C4A 6638  12.585   8.738   4.850
  554DOPC   C1B 6639  12.836   8.972   3.950
  554DOPC   D2B 6640  12.876   9.007   4.250
  554DOPC   C3B 6641  12.914   9.048   4.550
  554DOPC   C4B 6642  12.925   9.003   4.850
  555DOPC   NC3 6643  16.397   1.937   3.050
  555DOPC   PO4 6644  16.383   1.974   3.350
  555DOPC   GL1 6645  16.443   1.880   3.650
  555DOPC   GL2 6646  16.545   1.942   3.650
  555DOPC   C1A 6647  16.404   1.901   3.950
  555DOPC   D2A 6648  16.382   1.949   4.250
  555DOPC   C3A 6649  16.438   1.893   4.550
  555DOPC   C4A 6650  16.427   1.876   4.850
  555DOPC   C1B 6651  16.771   1.975   3.950
  555DOPC   D2B 6652  16.795   2.037   4.250
  555DOPC   C3B 6653  16.809   2.031   4.550
  555DOPC   C4B 6654  16.764   2.024   4.850
  556DOPC   NC3 6655  15.643   9.691   3.050
  556DOPC   PO4 6656  15.653   9.724   3.350
  556DOPC   GL1 6657  15.643   9.691   3.650
  556DOPC   GL2 6658  15.814   9.616   3.650
  556DOPC   C1A 6659  15.683   9.708   3.950
  556DOPC   D2A 6660  15.626   9.768   4.250
  556DOPC   C3A 6661  15.659   9.690   4.550
  556DOPC   C4A 6662  15.635   9.698   4.850
  556DOPC   C1B 6663  15.970   9.643   3.950
  556DOPC   D2B 6664  15.964   9.644   4.250
  556DOPC   C3B 6665  15.955   9.567   4.550
  556DOPC   C4B 6666  15.960   9.628   4.850
  557DOPC   NC3 6667  11.821   5.883   3.050
  557DOPC   PO4 6668  11.766   5.941   3.350
  557DOPC   GL1 6669  11.764   5.850   3.650
  557DOPC   GL2 6670  11.979   5.833   3.650
  557DOPC   C1A 6671  11.766   5.937   3.950
  557DOPC   D2A 6672  11.847   5.881   4.250
  557DOPC   C3A 6673  11.821   5.853   4.550
  557DOPC   C4A 6674  11.808   5.879   4.850
  557DOPC   C1B 6675  12.160   5.744   3.950
  557DOPC   D2B 6676  12.178   5.732   4.250
  557DOPC   C3B 6677  12.150   5.732   4.550
  557DOPC   C4B 6678  12.097   5.720   4.850
  558DOPC   NC3 6679   1.260   1.043   3.050
  558DOPC   PO4 6680   1.238   1.022   3.350
  558DOPC   GL1 6681   1.272   1.031   3.650
  558DOPC   GL2 6682   1.157   1.191   3.650
  558DOPC   C1A 6683   1.301   1.045   3.950
  558DOPC   D2A 6684   1.227   1.004   4.250
  558DOPC   C3A 6685   1.213   1.055   4.550
  558DOPC   C4A 6686   1.267   0.984   4.850
  558DOPC   C1B 6687   1.181   1.337   3.950
  558DOPC   D2B 6688   1.167   1.405   4.250
  558DOPC   C3B 6689   1.191   1.408   4.550
  558DOPC   C4B 6690   1.175   1.407   4.850
  559DOPC   NC3 6691   3.562   4.492   3.050
  559DOPC   PO4 6692   3.515   4.460   3.350
  559DOPC   GL1 6693   3.471   4.502   3.650
  559DOPC   GL2 6694   3.537   4.324   3.650
  559DOPC   C1A 6695   3.512   4.438   3.950
  559DOPC   D2A 6696   3.553   4.454   4.250
  559DOPC   C3A 6697   3.510   4.473   4.550
  559DOPC   C4A 6698   3.547   4.468   4.850
  559DOPC   C1B 6699   3.526   4.074   3.950
  559DOPC   D2B 6700   3.536   4.085   4.250
  559DOPC   C3B 6701   3.457   4.120   4.550
  559DOPC   C4B 6702   3.534   4.113   4.850
  560DOPC   NC3 6703   1.855   8.199   3.050
  560DOPC   PO4 6704   1.844   8.224   3.350
  560DOPC   GL1 6705   1.788   8.226   3.650
  560DOPC   GL2 6706   2.012   8.107   3.650
  560DOPC   C1A 6707   1.834   8.162   3.950
  560DOPC   D2A 6708   1.840   8.225   4.250
  560DOPC   C3A 6709   1.807   8.177   4.550
  560DOPC   C4A 6710   1.795   8.209   4.850
  560DOPC   C1B 6711   2.103   8.018   3.950
  560DOPC   D2B 6712   2.143   8.071   4.250
  560DOPC   C3B 6713   2.122   8.068   4.550
  560DOPC   C4B 6714   2.115   8.012   4.850
  561DOPC   NC3 6715   3.516   0.229   3.050
  561DOPC   PO4 6716   3.507   0.294   3.350
  561DOPC   GL1 6717   3.562   0.264   3.650
  561DOPC   GL2 6718   3.559   0.452   3.650
  561DOPC   C1A 6719   3.501   0.276   3.950
  561DOPC   D2A 6720   3.525   0.219   4.250
  561DOPC   C3A 6721   3.525   0.288   4.550
  561DOPC   C4A 6722   3.509   0.227   4.850
  561DOPC   C1B 6723   3.445   0.656   3.950
  561DOPC   D2B 6724   3.446   0.645   4.250
  561DOPC   C3B 6725   3.468   0.575   4.550
  561DOPC   C4B 6726   3.445   0.608   4.850
  562DOPC   NC3 6727   0.526   4.887   3.050
  562DOPC   PO4 6728   0.519   4.835   3.350
  562DOPC   GL1 6729   0.502   4.889   3.650
  562DOPC   GL2 6730   0.475   5.063   3.650
  562DOPC   C1A 6731   0.486   4.880   3.950
  562DOPC   D2A 6732   0.450   4.884   4.250
  562DOPC   C3A 6733   0.530   4.850   4.550
  562DOPC   C4A 6734   0.481   4.834   4.850
  562DOPC   C1B 6735   0.415   5.221   3.950
  562DOPC   D2B 6736   0.423   5.205   4.250
  562DOPC   C3B 6737   0.435   5.225   4.550
  562DOPC   C4B 6738   0.404   5.251   4.850
  563DOPC   NC3 6739  13.416   8.031   3.050
  563DOPC   PO4 6740  13.347   8.011   3.350
  563DOPC   GL1 6741  13.399   7.997   3.650
  563DOPC   GL2 6742  13.541   8.141   3.650
  563DOPC   C1A 6743  13.358   8.039   3.950
  563DOPC   D2A 6744  13.372   7.981   4.250
  563DOPC   C3A 6745  13.348   7.996   4.550
  563DOPC   C4A 6746  13.341   7.956   4.850
  563DOPC   C1B 6747  13.609   8.216   3.950
  563DOPC   D2B 6748  13.629   8.236   4.250
  563DOPC   C3B 6749  13.629   8.290   4.550
  563DOPC   C4B 6750  13.620   8.226   4.850
  564DOPC   NC3 6751   6.499   9.010   3.050
  564DOPC   PO4 6752   6.474   9.005   3.350
  564DOPC   GL1 6753   6.474   9.037   3.650
  564DOPC   GL2 6754   6.638   8.917   3.650
  564DOPC   C1A 6755   6.455   8.961   3.950
  564DOPC   D2A 6756   6.404   9.051   4.250
  564DOPC   C3A 6757   6.432   8.975   4.550
  564DOPC   C4A 6758   6.436   9.055   4.850
  564DOPC   C1B 6759   6.729   8.757   3.950
  564DOPC   D2B 6760   6.744   8.804   4.250
  564DOPC   C3B 6761   6.735   8.758   4.550
  564DOPC   C4B 6762   6.702   8.766   4.850
  565DOPC   NC3 6763   1.320   6.754   3.050
  565DOPC   PO4 6764   1.268   6.712   3.350
  565DOPC   GL1 6765   1.314   6.756   3.650
  565DOPC   GL2 6766   1.201   6.575   3.650
  565DOPC   C1A 6767   1.322   6.778   3.950
  565DOPC   D2A 6768   1.289   6.680   4.250
  565DOPC   C3A 6769   1.266   6.770   4.550
  565DOPC   C4A 6770   1.348   6.736   4.850
  565DOPC   C1B 6771   1.095   6.451   3.950
  565DOPC   D2B 6772   1.085   6.416   4.250
  565DOPC   C3B 6773   1.078   6.480   4.550
  565DOPC   C4B 6774   1.087   6.496   4.850
  566DOPC   NC3 6775  11.775   2.694   3.050
  566DOPC   PO4 6776  11.816   2.675   3.350
  566DOPC   GL1 6777  11.780   2.744   3.650
  566DOPC   GL2 6778  11.982   2.782   3.650
  566DOPC   C1A 6779  11.808   2.690   3.950
  566DOPC   D2A 6780  11.793   2.728   4.250
  566DOPC   C3A 6781  11.778   2.737   4.550
  566DOPC   C4A 6782  11.808   2.717   4.850
  566DOPC   C1B 6783  12.117   2.756   3.950
  566DOPC   D2B 6784  12.129   2.754   4.250
  566DOPC   C3B 6785  12.148   2.763   4.550
  566DOPC   C4B 6786  12.165   2.749   4.850
  567DOPC   NC3 6787   5.697   4.455   3.050
  567DOPC   PO4 6788   5.774   4.407   3.350
  567DOPC   GL1 6789   5.767   4.456   3.650
  567DOPC   GL2 6790   5.787   4.235   3.650
  567DOPC   C1A 6791   5.688   4.411   3.950
  567DOPC   D2A 6792   5.777   4.469   4.250
  567DOPC   C3A 6793   5.704   4.411   4.550
  567DOPC   C4A 6794   5.740   4.388   4.850
  567DOPC   C1B 6795   5.945   4.101   3.950
  567DOPC   D2B 6796   5.921   4.128   4.250
  567DOPC   C3B 6797   5.950   4.098   4.550
  567DOPC   C4B 6798   5.901   4.131   4.850
  568DOPC   NC3 6799   3.686   9.022   3.050
  568DOPC   PO4 6800   3.653   9.013   3.350
  568DOPC   GL1 6801   3.628   8.985   3.650
  568DOPC   GL2 6802   3.483   8.888   3.650
  568DOPC   C1A 6803   3.669   9.021   3.950
  568DOPC   D2A 6804   3.688   9.029   4.250
  568DOPC   C3A 6805   3.679   8.944   4.550
  568DOPC   C4A 6806   3.712   8.940   4.850
  568DOPC   C1B 6807   3.396   8.789   3.950
  568DOPC   D2B 6808   3.366   8.818   4.250
  568DOPC   C3B 6809   3.338   8.761   4.550
  568DOPC   C4B 6810   3.356   8.844   4.850
  569DOPC   NC3 6811   5.725   5.205   3.050
  569DOPC   PO4 6812   5.745   5.184   3.350
  569DOPC   GL1 6813   5.757   5.231   3.650
  569DOPC   GL2 6814   5.783   5.013   3.650
  569DOPC   C1A 6815   5.722   5.258   3.950
  569DOPC   D2A 6816   5.732   5.225   4.250
  569DOPC   C3A 6817   5.781   5.243   4.550
  569DOPC   C4A 6818   5.694   5.165   4.850
  569DOPC   C1B 6819   5.946   4.907   3.950
  569DOPC   D2B 6820   5.927   4.873   4.250
  569DOPC   C3B 6821   5.931   4.869   4.550
  569DOPC   C4B 6822   5.880   4.899   4.850
  570DOPC   NC3 6823  16.427   9.743   3.050
  570DOPC   PO4 6824  16.426   9.804   3.350
  570DOPC   GL1 6825  16.477   9.767   3.650
  570DOPC   GL2 6826  16.630   9.645   3.650
  570DOPC   C1A 6827  16.463   9.780   3.950
  570DOPC   D2A 6828  16.451   9.791   4.250
  570DOPC   C3A 6829  16.455   9.767   4.550
  570DOPC   C4A 6830  16.403   9.732   4.850
  570DOPC   C1B 6831  16.694   9.566   3.950
  570DOPC   D2B 6832  16.721   9.609   4.250
  570DOPC   C3B 6833  16.786   9.554   4.550
  570DOPC   C4B 6834  16.717   9.588   4.850
  571DOPC   NC3 6835  17.202   1.316   3.050
  571DOPC   PO4 6836  17.258   1.274   3.350
  571DOPC   GL1 6837  17.248   1.289   3.650
  571DOPC   GL2 6838  17.395   1.179   3.650
  571DOPC   C1A 6839  17.262   1.288   3.950
  571DOPC   D2A 6840  17.210   1.314   4.250
  571DOPC   C3A 6841  17.235   1.342   4.550
  571DOPC   C4A 6842  17.247   1.299   4.850
  571DOPC   C1B 6843  17.458   1.102   3.950
  571DOPC   D2B 6844  17.520   1.060   4.250
  571DOPC   C3B 6845  17.463   1.075   4.550
  571DOPC   C4B 6846  17.447   1.134   4.850
  572DOPC   NC3 6847  12.057   2.168   3.050
  572DOPC   PO4 6848  12.044   2.142   3.350
  572DOPC   GL1 6849  12.048   2.116   3.650
  572DOPC   GL2 6850  12.020   1.970   3.650
  572DOPC   C1A 6851  12.095   2.169   3.950
  572DOPC   D2A 6852  12.067   2.133   4.250
  572DOPC   C3A 6853  12.105   2.098   4.550
  572DOPC   C4A 6854  12.045   2.121   4.850
  572DOPC   C1B 6855  11.864   1.860   3.950
  572DOPC   D2B 6856  11.887   1.799   4.250
  572DOPC   C3B 6857  11.917   1.827   4.550
  572DOPC   C4B 6858  11.934   1.801   4.850
  573DOPC   NC3 6859  17.910   9.681   3.050
  573DOPC   PO4 6860  17.926   9.702   3.350
  573DOPC   GL1 6861  17.934   9.683   3.650
  573DOPC   GL2 6862  18.109   9.635   3.650
  573DOPC   C1A 6863  17.906   9.715   3.950
  573DOPC   D2A 6864  17.902   9.648   4.250
  573DOPC   C3A 6865  17.907   9.729   4.550
  573DOPC   C4A 6866  17.914   9.634   4.850
  573DOPC   C1B 6867  18.316   9.682   3.950
  573DOPC   D2B 6868  18.276   9.658   4.250
  573DOPC   C3B 6869  18.343   9.630   4.550
  573DOPC   C4B 6870  18.259   9.667   4.850
  574DOPC   NC3 6871  17.955   4.316   3.050
  574DOPC   PO4 6872  17.985   4.324   3.350
  574DOPC   GL1 6873  17.916   4.291   3.650
  574DOPC   GL2 6874  18.167   4.297   3.650
  574DOPC   C1A 6875  17.994   4.318   3.950
  574DOPC   D2A 6876  17.998   4.287   4.250
  574DOPC   C3A 6877  17.912   4.300   4.550
  574DOPC   C4A 6878  17.916   4.295   4.850
  574DOPC   C1B 6879  18.332   4.243   3.950
  574DOPC   D2B 6880  18.304   4.295   4.250
  574DOPC   C3B 6881  18.338   4.252   4.550
  574DOPC   C4B 6882  18.256   4.248   4.850
  575DOPC   NC3 6883   8.984   4.394   3.050
  575DOPC   PO4 6884   9.046   4.397   3.350
  575DOPC   GL1 6885   9.023   4.381   3.650
  575DOPC   GL2 6886   8.922   4.311   3.650
  575DOPC   C1A 6887   9.042   4.434   3.950
  575DOPC   D2A 6888   8.999   4.379   4.250
  575DOPC   C3A 6889   9.029   4.454   4.550
  575DOPC   C4A 6890   8.993   4.421   4.850
  575DOPC   C1B 6891   8.795   4.175   3.950
  575DOPC   D2B 6892   8.831   4.145   4.250
  575DOPC   C3B 6893   8.787   4.153   4.550
  575DOPC   C4B 6894   8.807   4.091   4.850
  576DOPC   NC3 6895   7.935   1.971   3.050
  576DOPC   PO4 6896   7.938   2.010   3.350
  576DOPC   GL1 6897   7.978   1.992   3.650
  576DOPC   GL2 6898   8.129   1.991   3.650
  576DOPC   C1A 6899   7.963   2.025   3.950
  576DOPC   D2A 6900   7.997   2.027   4.250
  576DOPC   C3A 6901   7.923   1.971   4.550
  576DOPC   C4A 6902   7.989   1.976   4.850
  576DOPC   C1B 6903   8.287   1.974   3.950
  576DOPC   D2B 6904   8.312   1.925   4.250
  576DOPC   C3B 6905   8.279   1.973   4.550
  576DOPC   C4B 6906   8.267   2.008   4.850
  577DOPC   NC3 6907  11.988   0.591   3.050
  577DOPC   PO4 6908  11.920   0.643   3.350
  577DOPC   GL1 6909  11.987   0.623   3.650
  577DOPC   GL2 6910  12.008   0.452   3.650
  577DOPC   C1A 6911  11.960   0.621   3.950
  577DOPC   D2A 6912  11.939   0.610   4.250
  577DOPC   C3A 6913  11.907   0.590   4.550
  577DOPC   C4A 6914  11.969   0.586   4.850
  577DOPC   C1B 6915  11.944   0.237   3.950
  577DOPC   D2B 6916  12.037   0.266   4.250
  577DOPC   C3B 6917  12.036   0.290   4.550
  577DOPC   C4B 6918  11.971   0.277   4.850
  578DOPC   NC3 6919   6.015   5.903   3.050
  578DOPC   PO4 6920   5.987   5.922   3.350
  578DOPC   GL1 6921   5.941   5.828   3.650
  578DOPC   GL2 6922   5.820   5.831   3.650
  578DOPC   C1A 6923   5.945   5.835   3.950
  578DOPC   D2A 6924   5.967   5.874   4.250
  578DOPC   C3A 6925   5.976   5.884   4.550
  578DOPC   C4A 6926   6.011   5.913   4.850
  578DOPC   C1B 6927   5.603   5.748   3.950
  578DOPC   D2B 6928   5.604   5.736   4.250
  578DOPC   C3B 6929   5.654   5.745   4.550
  578DOPC   C4B 6930   5.601   5.783   4.850
  579DOPC   NC3 6931  12.769   0.593   3.050
  579DOPC   PO4 6932  12.841   0.581   3.350
  579DOPC   GL1 6933  12.803   0.595   3.650
  579DOPC   GL2 6934  12.792   0.447   3.650
  579DOPC   C1A 6935  12.808   0.603   3.950
  579DOPC   D2A 6936  12.801   0.553   4.250
  579DOPC   C3A 6937  12.850   0.618   4.550
  579DOPC   C4A 6938  12.826   0.598   4.850
  579DOPC   C1B 6939  12.715   0.235   3.950
  579DOPC   D2B 6940  12.692   0.246   4.250
  579DOPC   C3B 6941  12.673   0.236   4.550
  579DOPC   C4B 6942  12.642   0.249   4.850
  580DOPC   NC3 6943  19.113   1.976   3.050
  580DOPC   PO4 6944  19.060   1.995   3.350
  580DOPC   GL1 6945  19.108   1.987   3.650
  580DOPC   GL2 6946  18.904   1.938   3.650
  580DOPC   C1A 6947  19.025   1.971   3.950
  580DOPC   D2A 6948  19.031   1.985   4.250
  580DOPC   C3A 6949  19.034   2.003   4.550
  580DOPC   C4A 6950  19.110   1.955   4.850
  580DOPC   C1B 6951  18.690   1.989   3.950
  580DOPC   D2B 6952  18.676   2.023   4.250
  580DOPC   C3B 6953  18.718   2.013   4.550
  580DOPC   C4B 6954  18.719   1.925   4.850
  581DOPC   NC3 6955   8.174   4.471   3.050
  581DOPC   PO4 6956   8.163   4.485   3.350
  581DOPC   GL1 6957   8.192   4.483   3.650
  581DOPC   GL2 6958   8.078   4.313   3.650
  581DOPC   C1A 6959   8.159   4.496   3.950
  581DOPC   D2A 6960   8.225   4.444   4.250
  581DOPC   C3A 6961   8.233   4.479   4.550
  581DOPC   C4A 6962   8.220   4.495   4.850
  581DOPC   C1B 6963   8.086   4.135   3.950
  581DOPC   D2B 6964   8.089   4.138   4.250
  581DOPC   C3B 6965   8.019   4.078   4.550
  581DOPC   C4B 6966   8.110   4.083   4.850
  582DOPC   NC3 6967  10.463   2.125   3.050
  582DOPC   PO4 6968  10.472   2.103   3.350
  582DOPC   GL1 6969  10.453   2.118   3.650
  582DOPC   GL2 6970  10.450   2.018   3.650
  582DOPC   C1A 6971  10.521   2.157   3.950
  582DOPC   D2A 6972  10.474   2.112   4.250
  582DOPC   C3A 6973  10.453   2.182   4.550
  582DOPC   C4A 6974  10.500   2.099   4.850
  582DOPC   C1B 6975  10.364   1.839   3.950
  582DOPC   D2B 6976  10.430   1.779   4.250
  582DOPC   C3B 6977  10.341   1.775   4.550
  582DOPC   C4B 6978  10.433   1.784   4.850
  583DOPC   NC3 6979  15.638   2.680   3.050
  583DOPC   PO4 6980  15.648   2.607   3.350
  583DOPC   GL1 6981  15.639   2.655   3.650
  583DOPC   GL2 6982  15.852   2.748   3.650
  583DOPC   C1A 6983  15.641   2.608   3.950
  583DOPC   D2A 6984  15.706   2.597   4.250
  583DOPC   C3A 6985  15.662   2.647   4.550
  583DOPC   C4A 6986  15.624   2.625   4.850
  583DOPC   C1B 6987  15.963   2.887   3.950
  583DOPC   D2B 6988  15.919   2.857   4.250
  583DOPC   C3B 6989  15.967   2.815   4.550
  583DOPC   C4B 6990  15.989   2.816   4.850
  584DOPC   NC3 6991   8.972   9.068   3.050
  584DOPC   PO4 6992   9.025   9.084   3.350
  584DOPC   GL1 6993   8.995   9.055   3.650
  584DOPC   GL2 6994   8.907   8.923   3.650
  584DOPC   C1A 6995   9.021   9.086   3.950
  584DOPC   D2A 6996   8.958   9.072   4.250
  584DOPC   C3A 6997   8.999   9.000   4.550
  584DOPC   C4A 6998   9.007   9.053   4.850
  584DOPC   C1B 6999   8.826   8.712   3.950
  584DOPC   D2B 7000   8.822   8.789   4.250
  584DOPC   C3B 7001   8.814   8.791   4.550
  584DOPC   C4B 7002   8.812   8.716   4.850
  585DOPC   NC3 7003   4.412   7.438   3.050
  585DOPC   PO4 7004   4.367   7.523   3.350
  585DOPC   GL1 7005   4.368   7.493   3.650
  585DOPC   GL2 7006   4.305   7.335   3.650
  585DOPC   C1A 7007   4.404   7.538   3.950
  585DOPC   D2A 7008   4.445   7.482   4.250
  585DOPC   C3A 7009   4.453   7.498   4.550
  585DOPC   C4A 7010   4.452   7.511   4.850
  585DOPC   C1B 7011   4.151   7.182   3.950
  585DOPC   D2B 7012   4.142   7.185   4.250
  585DOPC   C3B 7013   4.151   7.217   4.550
  585DOPC   C4B 7014   4.192   7.236   4.850
  586DOPC   NC3 7015  17.964   0.286   3.050
  586DOPC   PO4 7016  18.018   0.279   3.350
  586DOPC   GL1 7017  18.033   0.293   3.650
  586DOPC   GL2 7018  18.143   0.400   3.650
  586DOPC   C1A 7019  17.978   0.296   3.950
  586DOPC   D2A 7020  17.982   0.345   4.250
  586DOPC   C3A 7021  18.020   0.303   4.550
  586DOPC   C4A 7022  18.046   0.299   4.850
  586DOPC   C1B 7023  18.265   0.567   3.950
  586DOPC   D2B 7024  18.232   0.539   4.250
  586DOPC   C3B 7025  18.284   0.603   4.550
  586DOPC   C4B 7026  18.213   0.510   4.850
  587DOPC   NC3 7027  11.068   4.153   3.050
  587DOPC   PO4 7028  11.097   4.161   3.350
  587DOPC   GL1 7029  11.031   4.160   3.650
  587DOPC   GL2 7030  11.229   4.278   3.650
  587DOPC   C1A 7031  11.094   4.190   3.950
  587DOPC   D2A 7032  11.005   4.192   4.250
  587DOPC   C3A 7033  11.095   4.236   4.550
  587DOPC   C4A 7034  11.056   4.235   4.850
  587DOPC   C1B 7035  11.378   4.341   3.950
  587DOPC   D2B 7036  11.387   4.356   4.250
  587DOPC   C3B 7037  11.342   4.322   4.550
  587DOPC   C4B 7038  11.347   4.350   4.850
  588DOPC   NC3 7039  18.284   3.615   3.050
  588DOPC   PO4 7040  18.273   3.606   3.350
  588DOPC   GL1 7041  18.264   3.634   3.650
  588DOPC   GL2 7042  18.170   3.467   3.650
  588DOPC   C1A 7043  18.301   3.576   3.950
  588DOPC   D2A 7044  18.241   3.611   4.250
  588DOPC   C3A 7045  18.305   3.584   4.550
  588DOPC   C4A 7046  18.297   3.574   4.850
  588DOPC   C1B 7047  18.028   3.410   3.950
  588DOPC   D2B 7048  17.955   3.437   4.250
  588DOPC   C3B 7049  17.951   3.406   4.550
  588DOPC   C4B 7050  18.003   3.384   4.850
  589DOPC   NC3 7051   8.837   6.791   3.050
  589DOPC   PO4 7052   8.817   6.801   3.350
  589DOPC   GL1 7053   8.842   6.779   3.650
  589DOPC   GL2 7054   8.875   6.587   3.650
  589DOPC   C1A 7055   8.805   6.794   3.950
  589DOPC   D2A 7056   8.797   6.780   4.250
  589DOPC   C3A 7057   8.803   6.797   4.550
  589DOPC   C4A 7058   8.865   6.737   4.850
  589DOPC   C1B 7059   8.995   6.428   3.950
  589DOPC   D2B 7060   8.952   6.471   4.250
  589DOPC   C3B 7061   8.937   6.382   4.550
  589DOPC   C4B 7062   8.978   6.470   4.850
  590DOPC   NC3 7063   6.720   6.700   3.050
  590DOPC   PO4 7064   6.767   6.707   3.350
  590DOPC   GL1 7065   6.747   6.693   3.650
  590DOPC   GL2 7066   6.628   6.596   3.650
  590DOPC   C1A 7067   6.731   6.650   3.950
  590DOPC   D2A 7068   6.700   6.690   4.250
  590DOPC   C3A 7069   6.692   6.690   4.550
  590DOPC   C4A 7070   6.743   6.683   4.850
  590DOPC   C1B 7071   6.408   6.478   3.950
  590DOPC   D2B 7072   6.438   6.478   4.250
  590DOPC   C3B 7073   6.414   6.517   4.550
  590DOPC   C4B 7074   6.473   6.474   4.850
  591DOPC   NC3 7075  18.280   7.491   3.050
  591DOPC   PO4 7076  18.308   7.501   3.350
  591DOPC   GL1 7077  18.233   7.472   3.650
  591DOPC   GL2 7078  18.134   7.359   3.650
  591DOPC   C1A 7079  18.312   7.497   3.950
  591DOPC   D2A 7080  18.306   7.462   4.250
  591DOPC   C3A 7081  18.252   7.419   4.550
  591DOPC   C4A 7082  18.275   7.430   4.850
  591DOPC   C1B 7083  17.970   7.243   3.950
  591DOPC   D2B 7084  18.010   7.223   4.250
  591DOPC   C3B 7085  17.985   7.262   4.550
  591DOPC   C4B 7086  17.985   7.257   4.850
  592DOPC   NC3 7087   8.865   8.334   3.050
  592DOPC   PO4 7088   8.863   8.305   3.350
  592DOPC   GL1 7089   8.939   8.277   3.650
  592DOPC   GL2 7090   8.849   8.118   3.650
  592DOPC   C1A 7091   8.859   8.321   3.950
  592DOPC   D2A 7092   8.889   8.312   4.250
  592DOPC   C3A 7093   8.857   8.351   4.550
  592DOPC   C4A 7094   8.886   8.305   4.850
  592DOPC   C1B 7095   8.914   7.957   3.950
  592DOPC   D2B 7096   8.863   7.913   4.250
  592DOPC   C3B 7097   8.925   7.928   4.550
  592DOPC   C4B 7098   8.940   7.950   4.850
  593DOPC   NC3 7099  10.490   1.021   3.050
  593DOPC   PO4 7100  10.588   1.075   3.350
  593DOPC   GL1 7101  10.501   1.018   3.650
  593DOPC   GL2 7102  10.468   1.214   3.650
  593DOPC   C1A 7103  10.577   1.015   3.950
  593DOPC   D2A 7104  10.559   1.059   4.250
  593DOPC   C3A 7105  10.497   1.041   4.550
  593DOPC   C4A 7106  10.495   1.042   4.850
  593DOPC   C1B 7107  10.363   1.336   3.950
  593DOPC   D2B 7108  10.335   1.394   4.250
  593DOPC   C3B 7109  10.307   1.382   4.550
  593DOPC   C4B 7110  10.379   1.352   4.850
  594DOPC   NC3 7111  10.600   7.413   3.050
  594DOPC   PO4 7112  10.628   7.394   3.350
  594DOPC   GL1 7113  10.567   7.350   3.650
  594DOPC   GL2 7114  10.451   7.367   3.650
  594DOPC   C1A 7115  10.648   7.408   3.950
  594DOPC   D2A 7116  10.635   7.341   4.250
  594DOPC   C3A 7117  10.642   7.369   4.550
  594DOPC   C4A 7118  10.646   7.416   4.850
  594DOPC   C1B 7119  10.226   7.310   3.950
  594DOPC   D2B 7120  10.244   7.328   4.250
  594DOPC   C3B 7121  10.296   7.338   4.550
  594DOPC   C4B 7122  10.237   7.337   4.850
  595DOPC   NC3 7123   5.144   3.364   3.050
  595DOPC   PO4 7124   5.233   3.417   3.350
  595DOPC   GL1 7125   5.227   3.373   3.650
  595DOPC   GL2 7126   5.053   3.526   3.650
  595DOPC   C1A 7127   5.155   3.369   3.950
  595DOPC   D2A 7128   5.175   3.416   4.250
  595DOPC   C3A 7129   5.159   3.434   4.550
  595DOPC   C4A 7130   5.183   3.364   4.850
  595DOPC   C1B 7131   4.953   3.602   3.950
  595DOPC   D2B 7132   4.867   3.583   4.250
  595DOPC   C3B 7133   4.885   3.667   4.550
  595DOPC   C4B 7134   4.905   3.581   4.850
  596DOPC   NC3 7135  16.032   3.599   3.050
  596DOPC   PO4 7136  16.020   3.545   3.350
  596DOPC   GL1 7137  15.965   3.613   3.650
  596DOPC   GL2 7138  15.826   3.533   3.650
  596DOPC   C1A 7139  15.967   3.619   3.950
  596DOPC   D2A 7140  15.941   3.533   4.250
  596DOPC   C3A 7141  15.996   3.550   4.550
  596DOPC   C4A 7142  15.936   3.607   4.850
  596DOPC   C1B 7143  15.614   3.472   3.950
  596DOPC   D2B 7144  15.637   3.463   4.250
  596DOPC   C3B 7145  15.645   3.463   4.550
  596DOPC   C4B 7146  15.701   3.420   4.850
  597DOPC   NC3 7147   7.462   4.130   3.050
  597DOPC   PO4 7148   7.529   4.130   3.350
  597DOPC   GL1 7149   7.513   4.129   3.650
  597DOPC   GL2 7150   7.335   4.296   3.650
  597DOPC   C1A 7151   7.462   4.158   3.950
  597DOPC   D2A 7152   7.472   4.136   4.250
  597DOPC   C3A 7153   7.503   4.187   4.550
  597DOPC   C4A 7154   7.451   4.185   4.850
  597DOPC   C1B 7155   7.194   4.438   3.950
  597DOPC   D2B 7156   7.244   4.344   4.250
  597DOPC   C3B 7157   7.170   4.406   4.550
  597DOPC   C4B 7158   7.217   4.414   4.850
  598DOPC   NC3 7159  16.700   0.329   3.050
  598DOPC   PO4 7160  16.704   0.294   3.350
  598DOPC   GL1 7161  16.726   0.309   3.650
  598DOPC   GL2 7162  16.552   0.449   3.650
  598DOPC   C1A 7163  16.664   0.263   3.950
  598DOPC   D2A 7164  16.737   0.260   4.250
  598DOPC   C3A 7165  16.670   0.317   4.550
  598DOPC   C4A 7166  16.696   0.268   4.850
  598DOPC   C1B 7167  16.487   0.542   3.950
  598DOPC   D2B 7168  16.517   0.522   4.250
  598DOPC   C3B 7169  16.437   0.535   4.550
  598DOPC   C4B 7170  16.429   0.561   4.850
  599DOPC   NC3 7171  10.498   9.034   3.050
  599DOPC   PO4 7172  10.559   9.068   3.350
  599DOPC   GL1 7173  10.498   9.043   3.650
  599DOPC   GL2 7174  10.394   8.861   3.650
  599DOPC   C1A 7175  10.518   9.016   3.950
  599DOPC   D2A 7176  10.556   9.074   4.250
  599DOPC   C3A 7177  10.509   9.005   4.550
  599DOPC   C4A 7178  10.499   9.084   4.850
  599DOPC   C1B 7179  10.391   8.757   3.950
  599DOPC   D2B 7180  10.309   8.761   4.250
  599DOPC   C3B 7181  10.361   8.701   4.550
  599DOPC   C4B 7182  10.304   8.695   4.850
  600DOPC   NC3 7183  18.968   9.070   3.050
  600DOPC   PO4 7184  18.937   9.085   3.350
  600DOPC   GL1 7185  18.951   9.031   3.650
  600DOPC   GL2 7186  18.876   8.940   3.650
  600DOPC   C1A 7187  18.931   9.109   3.950
  600DOPC   D2A 7188  18.960   9.088   4.250
  600DOPC   C3A 7189  18.972   9.109   4.550
  600DOPC   C4A 7190  18.964   9.117   4.850
  600DOPC   C1B 7191  18.881   8.723   3.950
  600DOPC   D2B 7192  18.812   8.682   4.250
  600DOPC   C3B 7193  18.812   8.730   4.550
  600DOPC   C4B 7194  18.879   8.690   4.850
  601DOPC   NC3 7195   5.759   8.704   3.050
  601DOPC   PO4 7196   5.757   8.721   3.350
  601DOPC   GL1 7197   5.744   8.759   3.650
  601DOPC   GL2 7198   5.828   8.882   3.650
  601DOPC   C1A 7199   5.761   8.712   3.950
  601DOPC   D2A 7200   5.776   8.771   4.250
  601DOPC   C3A 7201   5.768   8.772   4.550
  601DOPC   C4A 7202   5.697   8.732   4.850
  601DOPC   C1B 7203   5.882   9.041   3.950
  601DOPC   D2B 7204   5.881   9.055   4.250
  601DOPC   C3B 7205   5.862   9.003   4.550
  601DOPC   C4B 7206   5.895   9.088   4.850
  602DOPC   NC3 7207   0.356   3.634   3.050
  602DOPC   PO4 7208   0.325   3.710   3.350
  602DOPC   GL1 7209   0.374   3.631   3.650
  602DOPC   GL2 7210   0.426   3.521   3.650
  602DOPC   C1A 7211   0.325   3.706   3.950
  602DOPC   D2A 7212   0.348   3.693   4.250
  602DOPC   C3A 7213   0.373   3.631   4.550
  602DOPC   C4A 7214   0.324   3.652   4.850
  602DOPC   C1B 7215   0.489   3.338   3.950
  602DOPC   D2B 7216   0.516   3.362   4.250
  602DOPC   C3B 7217   0.539   3.321   4.550
  602DOPC   C4B 7218   0.523   3.393   4.850
  603DOPC   NC3 7219  17.235   6.507   3.050
  603DOPC   PO4 7220  17.153   6.481   3.350
  603DOPC   GL1 7221  17.187   6.510   3.650
  603DOPC   GL2 7222  17.310   6.630   3.650
  603DOPC   C1A 7223  17.195   6.468   3.950
  603DOPC   D2A 7224  17.172   6.546   4.250
  603DOPC   C3A 7225  17.162   6.545   4.550
  603DOPC   C4A 7226  17.221   6.480   4.850
  603DOPC   C1B 7227  17.468   6.718   3.950
  603DOPC   D2B 7228  17.506   6.706   4.250
  603DOPC   C3B 7229  17.566   6.624   4.550
  603DOPC   C4B 7230  17.542   6.671   4.850
  604DOPC   NC3 7231  19.614   7.952   3.050
  604DOPC   PO4 7232  19.639   7.969   3.350
  604DOPC   GL1 7233  19.635   7.962   3.650
  604DOPC   GL2 7234  19.647   8.120   3.650
  604DOPC   C1A 7235  19.657   7.903   3.950
  604DOPC   D2A 7236  19.644   7.946   4.250
  604DOPC   C3A 7237  19.638   7.960   4.550
  604DOPC   C4A 7238  19.678   7.914   4.850
  604DOPC   C1B 7239  19.680   8.324   3.950
  604DOPC   D2B 7240  19.728   8.330   4.250
  604DOPC   C3B 7241  19.689   8.351   4.550
  604DOPC   C4B 7242  19.709   8.295   4.850
  605DOPC   NC3 7243   4.316   4.896   3.050
  605DOPC   PO4 7244   4.348   4.916   3.350
  605DOPC   GL1 7245   4.271   4.899   3.650
  605DOPC   GL2 7246   4.292   5.010   3.650
  605DOPC   C1A 7247   4.284   4.904   3.950
  605DOPC   D2A 7248   4.293   4.867   4.250
  605DOPC   C3A 7249   4.298   4.853   4.550
  605DOPC   C4A 7250   4.354   4.867   4.850
  605DOPC   C1B 7251   4.299   5.233   3.950
  605DOPC   D2B 7252   4.271   5.203   4.250
  605DOPC   C3B 7253   4.253   5.210   4.550
  605DOPC   C4B 7254   4.282   5.216   4.850
  606DOPC   NC3 7255   2.640   0.262   3.050
  606DOPC   PO4 7256   2.633   0.309   3.350
  606DOPC   GL1 7257   2.595   0.303   3.650
  606DOPC   GL2 7258   2.779   0.428   3.650
  606DOPC   C1A 7259   2.646   0.264   3.950
  606DOPC   D2A 7260   2.570   0.358   4.250
  606DOPC   C3A 7261   2.621   0.321   4.550
  606DOPC   C4A 7262   2.648   0.345   4.850
  606DOPC   C1B 7263   2.914   0.573   3.950
  606DOPC   D2B 7264   2.889   0.552   4.250
  606DOPC   C3B 7265   2.874   0.519   4.550
  606DOPC   C4B 7266   2.880   0.567   4.850
  607DOPC   NC3 7267   6.522   5.636   3.050
  607DOPC   PO4 7268   6.477   5.664   3.350
  607DOPC   GL1 7269   6.486   5.676   3.650
  607DOPC   GL2 7270   6.618   5.847   3.650
  607DOPC   C1A 7271   6.450   5.628   3.950
  607DOPC   D2A 7272   6.484   5.726   4.250
  607DOPC   C3A 7273   6.519   5.694   4.550
  607DOPC   C4A 7274   6.512   5.675   4.850
  607DOPC   C1B 7275   6.714   5.914   3.950
  607DOPC   D2B 7276   6.740   5.996   4.250
  607DOPC   C3B 7277   6.683   5.992   4.550
  607DOPC   C4B 7278   6.651   5.968   4.850
  608DOPC   NC3 7279  19.114   7.266   3.050
  608DOPC   PO4 7280  19.016   7.298   3.350
  608DOPC   GL1 7281  19.084   7.295   3.650
  608DOPC   GL2 7282  18.900   7.406   3.650
  608DOPC   C1A 7283  19.093   7.344   3.950
  608DOPC   D2A 7284  19.053   7.264   4.250
  608DOPC   C3A 7285  19.073   7.338   4.550
  608DOPC   C4A 7286  19.046   7.315   4.850
  608DOPC   C1B 7287  18.731   7.369   3.950
  608DOPC   D2B 7288  18.732   7.468   4.250
  608DOPC   C3B 7289  18.681   7.371   4.550
  608DOPC   C4B 7290  18.733   7.446   4.850
  609DOPC   NC3 7291  13.697   2.747   3.050
  609DOPC   PO4 7292  13.703   2.803   3.350
  609DOPC   GL1 7293  13.699   2.725   3.650
  609DOPC   GL2 7294  13.501   2.721   3.650
  609DOPC   C1A 7295  13.732   2.750   3.950
  609DOPC   D2A 7296  13.705   2.722   4.250
  609DOPC   C3A 7297  13.648   2.721   4.550
  609DOPC   C4A 7298  13.695   2.757   4.850
  609DOPC   C1B 7299  13.320   2.703   3.950
  609DOPC   D2B 7300  13.382   2.689   4.250
  609DOPC   C3B 7301  13.288   2.758   4.550
  609DOPC   C4B 7302  13.293   2.693   4.850
  610DOPC   NC3 7303   2.864   8.209   3.050
  610DOPC   PO4 7304   2.904   8.246   3.350
  610DOPC   GL1 7305   2.932   8.276   3.650
  610DOPC   GL2 7306   2.724   8.162   3.650
  610DOPC   C1A 7307   2.878   8.245   3.950
  610DOPC   D2A 7308   2.857   8.254   4.250
  610DOPC   C3A 7309   2.901   8.184   4.550
  610DOPC   C4A 7310   2.920   8.253   4.850
  610DOPC   C1B 7311   2.556   7.992   3.950
  610DOPC   D2B 7312   2.623   7.971   4.250
  610DOPC   C3B 7313   2.589   8.012   4.550
  610DOPC   C4B 7314   2.587   8.056   4.850
  611DOPC   NC3 7315   0.607   8.096   3.050
  611DOPC   PO4 7316   0.606   8.104   3.350
  611DOPC   GL1 7317   0.596   8.037   3.650
  611DOPC   GL2 7318   0.421   8.087   3.650
  611DOPC   C1A 7319   0.646   8.034   3.950
  611DOPC   D2A 7320   0.636   8.023   4.250
  611DOPC   C3A 7321   0.620   8.048   4.550
  611DOPC   C4A 7322   0.612   8.035   4.850
  611DOPC   C1B 7323   0.290   8.168   3.950
  611DOPC   D2B 7324   0.265   8.170   4.250
  611DOPC   C3B 7325   0.252   8.182   4.550
  611DOPC   C4B 7326   0.242   8.231   4.850
  612DOPC   NC3 7327   8.754   5.007   3.050
  612DOPC   PO4 7328   8.700   5.007   3.350
  612DOPC   GL1 7329   8.733   5.079   3.650
  612DOPC   GL2 7330   8.855   5.041   3.650
  612DOPC   C1A 7331   8.723   4.995   3.950
  612DOPC   D2A 7332   8.750   5.060   4.250
  612DOPC   C3A 7333   8.737   5.093   4.550
  612DOPC   C4A 7334   8.670   5.077   4.850
  612DOPC   C1B 7335   9.121   5.021   3.950
  612DOPC   D2B 7336   9.071   5.023   4.250
  612DOPC   C3B 7337   9.069   5.031   4.550
  612DOPC   C4B 7338   9.038   5.070   4.850
  613DOPC   NC3 7339  16.419   8.975   3.050
  613DOPC   PO4 7340  16.460   8.979   3.350
  613DOPC   GL1 7341  16.444   9.016   3.650
  613DOPC   GL2 7342  16.637   8.875   3.650
  613DOPC   C1A 7343  16.477   9.029   3.950
  613DOPC   D2A 7344  16.412   8.984   4.250
  613DOPC   C3A 7345  16.421   9.040   4.550
  613DOPC   C4A 7346  16.406   9.044   4.850
  613DOPC   C1B 7347  16.722   8.842   3.950
  613DOPC   D2B 7348  16.712   8.762   4.250
  613DOPC   C3B 7349  16.716   8.747   4.550
  613DOPC   C4B 7350  16.707   8.793   4.850
  614DOPC   NC3 7351  17.405   2.132   3.050
  614DOPC   PO4 7352  17.441   2.128   3.350
  614DOPC   GL1 7353  17.399   2.087   3.650
  614DOPC   GL2 7354  17.364   1.975   3.650
  614DOPC   C1A 7355  17.424   2.151   3.950
  614DOPC   D2A 7356  17.461   2.144   4.250
  614DOPC   C3A 7357  17.486   2.166   4.550
  614DOPC   C4A 7358  17.421   2.111   4.850
  614DOPC   C1B 7359  17.237   1.823   3.950
  614DOPC   D2B 7360  17.235   1.827   4.250
  614DOPC   C3B 7361  17.250   1.796   4.550
  614DOPC   C4B 7362  17.238   1.797   4.850
  615DOPC   NC3 7363   3.363   3.593   3.050
  615DOPC   PO4 7364   3.381   3.537   3.350
  615DOPC   GL1 7365   3.326   3.567   3.650
  615DOPC   GL2 7366   3.550   3.498   3.650
  615DOPC   C1A 7367   3.350   3.542   3.950
  615DOPC   D2A 7368   3.286   3.526   4.250
  615DOPC   C3A 7369   3.317   3.585   4.550
  615DOPC   C4A 7370   3.313   3.514   4.850
  615DOPC   C1B 7371   3.718   3.522   3.950
  615DOPC   D2B 7372   3.654   3.446   4.250
  615DOPC   C3B 7373   3.679   3.465   4.550
  615DOPC   C4B 7374   3.643   3.465   4.850
  616DOPC   NC3 7375  10.622   5.889   3.050
  616DOPC   PO4 7376  10.603   5.832   3.350
  616DOPC   GL1 7377  10.568   5.909   3.650
  616DOPC   GL2 7378  10.482   5.862   3.650
  616DOPC   C1A 7379  10.635   5.858   3.950
  616DOPC   D2A 7380  10.636   5.840   4.250
  616DOPC   C3A 7381  10.638   5.919   4.550
  616DOPC   C4A 7382  10.565   5.893   4.850
  616DOPC   C1B 7383  10.285   5.790   3.950
  616DOPC   D2B 7384  10.229   5.729   4.250
  616DOPC   C3B 7385  10.308   5.772   4.550
  616DOPC   C4B 7386  10.263   5.775   4.850
  617DOPC   NC3 7387  14.317   3.649   3.050
  617DOPC   PO4 7388  14.262   3.667   3.350
  617DOPC   GL1 7389  14.249   3.739   3.650
  617DOPC   GL2 7390  14.249   3.536   3.650
  617DOPC   C1A 7391  14.251   3.737   3.950
  617DOPC   D2A 7392  14.235   3.685   4.250
  617DOPC   C3A 7393  14.246   3.707   4.550
  617DOPC   C4A 7394  14.284   3.712   4.850
  617DOPC   C1B 7395  14.239   3.361   3.950
  617DOPC   D2B 7396  14.278   3.325   4.250
  617DOPC   C3B 7397  14.276   3.330   4.550
  617DOPC   C4B 7398  14.329   3.382   4.850
  618DOPC   NC3 7399  12.068   9.506   3.050
  618DOPC   PO4 7400  12.058   9.484   3.350
  618DOPC   GL1 7401  12.061   9.568   3.650
  618DOPC   GL2 7402  12.022   9.652   3.650
  618DOPC   C1A 7403  12.114   9.502   3.950
  618DOPC   D2A 7404  12.049   9.469   4.250
  618DOPC   C3A 7405  12.042   9.474   4.550
  618DOPC   C4A 7406  12.072   9.482   4.850
  618DOPC   C1B 7407  11.864   9.765   3.950
  618DOPC   D2B 7408  11.842   9.812   4.250
  618DOPC   C3B 7409  11.870   9.806   4.550
  618DOPC   C4B 7410  11.848   9.850   4.850
  619DOPC   NC3 7411   3.689   8.288   3.050
  619DOPC   PO4 7412   3.678   8.263   3.350
  619DOPC   GL1 7413   3.630   8.201   3.650
  619DOPC   GL2 7414   3.553   8.086   3.650
  619DOPC   C1A 7415   3.637   8.247   3.950
  619DOPC   D2A 7416   3.612   8.250   4.250
  619DOPC   C3A 7417   3.639   8.275   4.550
  619DOPC   C4A 7418   3.618   8.272   4.850
  619DOPC   C1B 7419   3.364   8.065   3.950
  619DOPC   D2B 7420   3.369   8.052   4.250
  619DOPC   C3B 7421   3.350   8.040   4.550
  619DOPC   C4B 7422   3.369   7.990   4.850
  620DOPC   NC3 7423   5.193   9.764   3.050
  620DOPC   PO4 7424   5.191   9.766   3.350
  620DOPC   GL1 7425   5.190   9.777   3.650
  620DOPC   GL2 7426   5.048   9.702   3.650
  620DOPC   C1A 7427   5.188   9.780   3.950
  620DOPC   D2A 7428   5.142   9.734   4.250
  620DOPC   C3A 7429   5.209   9.728   4.550
  620DOPC   C4A 7430   5.166   9.816   4.850
  620DOPC   C1B 7431   4.863   9.513   3.950
  620DOPC   D2B 7432   4.922   9.553   4.250
  620DOPC   C3B 7433   4.927   9.549   4.550
  620DOPC   C4B 7434   4.863   9.600   4.850
  621DOPC   NC3 7435  19.487   9.569   3.050
  621DOPC   PO4 7436  19.456   9.554   3.350
  621DOPC   GL1 7437  19.484   9.596   3.650
  621DOPC   GL2 7438  19.684   9.645   3.650
  621DOPC   C1A 7439  19.536   9.642   3.950
  621DOPC   D2A 7440  19.461   9.610   4.250
  621DOPC   C3A 7441  19.453   9.632   4.550
  621DOPC   C4A 7442  19.480   9.634   4.850
  621DOPC   C1B 7443  19.786   9.739   3.950
  621DOPC   D2B 7444  19.819   9.754   4.250
  621DOPC   C3B 7445  19.840   9.745   4.550
  621DOPC   C4B 7446  19.794   9.770   4.850
  622DOPC   NC3 7447   2.602   8.794   3.050
  622DOPC   PO4 7448   2.611   8.775   3.350
  622DOPC   GL1 7449   2.644   8.814   3.650
  622DOPC   GL2 7450   2.716   8.912   3.650
  622DOPC   C1A 7451   2.626   8.727   3.950
  622DOPC   D2A 7452   2.666   8.789   4.250
  622DOPC   C3A 7453   2.656   8.762   4.550
  622DOPC   C4A 7454   2.592   8.743   4.850
  622DOPC   C1B 7455   2.872   9.023   3.950
  622DOPC   D2B 7456   2.912   8.989   4.250
  622DOPC   C3B 7457   2.865   9.003   4.550
  622DOPC   C4B 7458   2.906   9.040   4.850
  623DOPC   NC3 7459   7.318   1.375   3.050
  623DOPC   PO4 7460   7.333   1.420   3.350
  623DOPC   GL1 7461   7.329   1.417   3.650
  623DOPC   GL2 7462   7.395   1.162   3.650
  623DOPC   C1A 7463   7.357   1.353   3.950
  623DOPC   D2A 7464   7.301   1.393   4.250
  623DOPC   C3A 7465   7.309   1.417   4.550
  623DOPC   C4A 7466   7.292   1.376   4.850
  623DOPC   C1B 7467   7.379   1.049   3.950
  623DOPC   D2B 7468   7.401   1.055   4.250
  623DOPC   C3B 7469   7.386   1.048   4.550
  623DOPC   C4B 7470   7.340   1.055   4.850
  624DOPC   NC3 7471   7.949   3.605   3.050
  624DOPC   PO4 7472   7.921   3.617   3.350
  624DOPC   GL1 7473   7.971   3.616   3.650
  624DOPC   GL2 7474   8.114   3.504   3.650
  624DOPC   C1A 7475   7.985   3.597   3.950
  624DOPC   D2A 7476   7.971   3.562   4.250
  624DOPC   C3A 7477   7.977   3.587   4.550
  624DOPC   C4A 7478   7.951   3.605   4.850
  624DOPC   C1B 7479   8.268   3.435   3.950
  624DOPC   D2B 7480   8.324   3.435   4.250
  624DOPC   C3B 7481   8.258   3.471   4.550
  624DOPC   C4B 7482   8.257   3.477   4.850
  625DOPC   NC3 7483  16.646   6.726   3.050
  625DOPC   PO4 7484  16.623   6.768   3.350
  625DOPC   GL1 7485  16.608   6.775   3.650
  625DOPC   GL2 7486  16.590   6.633   3.650
  625DOPC   C1A 7487  16.659   6.805   3.950
  625DOPC   D2A 7488  16.660   6.795   4.250
  625DOPC   C3A 7489  16.599   6.771   4.550
  625DOPC   C4A 7490  16.597   6.749   4.850
  625DOPC   C1B 7491  16.568   6.388   3.950
  625DOPC   D2B 7492  16.568   6.455   4.250
  625DOPC   C3B 7493  16.554   6.457   4.550
  625DOPC   C4B 7494  16.547   6.400   4.850
  626DOPC   NC3 7495  11.324   5.768   3.050
  626DOPC   PO4 7496  11.307   5.750   3.350
  626DOPC   GL1 7497  11.402   5.709   3.650
  626DOPC   GL2 7498  11.183   5.833   3.650
  626DOPC   C1A 7499  11.391   5.729   3.950
  626DOPC   D2A 7500  11.372   5.684   4.250
  626DOPC   C3A 7501  11.311   5.761   4.550
  626DOPC   C4A 7502  11.373   5.679   4.850
  626DOPC   C1B 7503  11.039   5.910   3.950
  626DOPC   D2B 7504  11.067   5.924   4.250
  626DOPC   C3B 7505  11.045   5.920   4.550
  626DOPC   C4B 7506  11.024   5.939   4.850
  627DOPC   NC3 7507  19.632   2.608   3.050
  627DOPC   PO4 7508  19.637   2.618   3.350
  627DOPC   GL1 7509  19.648   2.531   3.650
  627DOPC   GL2 7510  19.672   2.712   3.650
  627DOPC   C1A 7511  19.597   2.567   3.950
  627DOPC   D2A 7512  19.663   2.615   4.250
  627DOPC   C3A 7513  19.619   2.551   4.550
  627DOPC   C4A 7514  19.607   2.538   4.850
  627DOPC   C1B 7515  19.674   2.950   3.950
  627DOPC   D2B 7516  19.671   2.946   4.250
  627DOPC   C3B 7517  19.692   2.920   4.550
  627DOPC   C4B 7518  19.666   2.866   4.850
  628DOPC   NC3 7519   1.795   2.080   3.050
  628DOPC   PO4 7520   1.847   2.072   3.350
  628DOPC   GL1 7521   1.794   2.042   3.650
  628DOPC   GL2 7522   1.985   1.976   3.650
  628DOPC   C1A 7523   1.831   2.127   3.950
  628DOPC   D2A 7524   1.876   2.061   4.250
  628DOPC   C3A 7525   1.853   2.122   4.550
  628DOPC   C4A 7526   1.872   2.085   4.850
  628DOPC   C1B 7527   2.069   1.870   3.950
  628DOPC   D2B 7528   2.136   1.861   4.250
  628DOPC   C3B 7529   2.102   1.837   4.550
  628DOPC   C4B 7530   2.157   1.863   4.850
  629DOPC   NC3 7531  18.890   1.340   3.050
  629DOPC   PO4 7532  18.876   1.399   3.350
  629DOPC   GL1 7533  18.943   1.336   3.650
  629DOPC   GL2 7534  18.902   1.154   3.650
  629DOPC   C1A 7535  18.917   1.393   3.950
  629DOPC   D2A 7536  18.929   1.423   4.250
  629DOPC   C3A 7537  18.860   1.361   4.550
  629DOPC   C4A 7538  18.907   1.341   4.850
  629DOPC   C1B 7539  18.891   0.989   3.950
  629DOPC   D2B 7540  18.928   1.068   4.250
  629DOPC   C3B 7541  18.912   0.991   4.550
  629DOPC   C4B 7542  18.893   1.056   4.850
  630DOPC   NC3 7543   4.248   4.103   3.050
  630DOPC   PO4 7544   4.205   4.158   3.350
  630DOPC   GL1 7545   4.224   4.069   3.650
  630DOPC   GL2 7546   4.244   4.287   3.650
  630DOPC   C1A 7547   4.255   4.073   3.950
  630DOPC   D2A 7548   4.197   4.133   4.250
  630DOPC   C3A 7549   4.179   4.115   4.550
  630DOPC   C4A 7550   4.248   4.153   4.850
  630DOPC   C1B 7551   4.325   4.472   3.950
  630DOPC   D2B 7552   4.321   4.479   4.250
  630DOPC   C3B 7553   4.404   4.482   4.550
  630DOPC   C4B 7554   4.388   4.446   4.850
  631DOPC   NC3 7555  15.991   2.033   3.050
  631DOPC   PO4 7556  16.029   2.024   3.350
  631DOPC   GL1 7557  15.948   2.023   3.650
  631DOPC   GL2 7558  15.843   1.946   3.650
  631DOPC   C1A 7559  15.966   1.978   3.950
  631DOPC   D2A 7560  15.955   1.950   4.250
  631DOPC   C3A 7561  16.010   1.970   4.550
  631DOPC   C4A 7562  15.955   1.980   4.850
  631DOPC   C1B 7563  15.622   1.936   3.950
  631DOPC   D2B 7564  15.611   1.945   4.250
  631DOPC   C3B 7565  15.691   1.919   4.550
  631DOPC   C4B 7566  15.628   1.911   4.850
  632DOPC   NC3 7567  19.725   3.356   3.050
  632DOPC   PO4 7568  19.756   3.379   3.350
  632DOPC   GL1 7569  19.720   3.320   3.650
  632DOPC   GL2 7570  19.647   3.553   3.650
  632DOPC   C1A 7571  19.724   3.393   3.950
  632DOPC   D2A 7572  19.723   3.325   4.250
  632DOPC   C3A 7573  19.773   3.362   4.550
  632DOPC   C4A 7574  19.745   3.390   4.850
  632DOPC   C1B 7575  19.582   3.663   3.950
  632DOPC   D2B 7576  19.607   3.689   4.250
  632DOPC   C3B 7577  19.596   3.660   4.550
  632DOPC   C4B 7578  19.619   3.617   4.850
  633DOPC   NC3 7579  18.193   7.954   3.050
  633DOPC   PO4 7580  18.203   7.956   3.350
  633DOPC   GL1 7581  18.187   7.983   3.650
  633DOPC   GL2 7582  18.167   8.108   3.650
  633DOPC   C1A 7583  18.155   7.925   3.950
  633DOPC   D2A 7584  18.183   7.994   4.250
  633DOPC   C3A 7585  18.200   7.950   4.550
  633DOPC   C4A 7586  18.168   7.948   4.850
  633DOPC   C1B 7587  18.074   8.290   3.950
  633DOPC   D2B 7588  18.054   8.248   4.250
  633DOPC   C3B 7589  18.050   8.332   4.550
  633DOPC   C4B 7590  18.104   8.279   4.850
  634DOPC   NC3 7591   3.419   4.837   3.050
  634DOPC   PO4 7592   3.422   4.879   3.350
  634DOPC   GL1 7593   3.412   4.866   3.650
  634DOPC   GL2 7594   3.551   5.031   3.650
  634DOPC   C1A 7595   3.449   4.841   3.950
  634DOPC   D2A 7596   3.484   4.849   4.250
  634DOPC   C3A 7597   3.423   4.857   4.550
  634DOPC   C4A 7598   3.464   4.903   4.850
  634DOPC   C1B 7599   3.615   5.259   3.950
  634DOPC   D2B 7600   3.611   5.240   4.250
  634DOPC   C3B 7601   3.578   5.229   4.550
  634DOPC   C4B 7602   3.562   5.190   4.850
  635DOPC   NC3 7603   7.327   8.751   3.050
  635DOPC   PO4 7604   7.300   8.731   3.350
  635DOPC   GL1 7605   7.322   8.689   3.650
  635DOPC   GL2 7606   7.330   8.886   3.650
  635DOPC   C1A 7607   7.359   8.703   3.950
  635DOPC   D2A 7608   7.350   8.736   4.250
  635DOPC   C3A 7609   7.297   8.678   4.550
  635DOPC   C4A 7610   7.314   8.696   4.850
  635DOPC   C1B 7611   7.421   9.087   3.950
  635DOPC   D2B 7612   7.404   9.052   4.250
  635DOPC   C3B 7613   7.422   9.096   4.550
  635DOPC   C4B 7614   7.430   9.104   4.850
  636DOPC   NC3 7615   6.655   3.692   3.050
  636DOPC   PO4 7616   6.663   3.659   3.350
  636DOPC   GL1 7617   6.661   3.646   3.650
  636DOPC   GL2 7618   6.613   3.478   3.650
  636DOPC   C1A 7619   6.685   3.669   3.950
  636DOPC   D2A 7620   6.655   3.661   4.250
  636DOPC   C3A 7621   6.680   3.699   4.550
  636DOPC   C4A 7622   6.716   3.639   4.850
  636DOPC   C1B 7623   6.472   3.319   3.950
  636DOPC   D2B 7624   6.461   3.397   4.250
  636DOPC   C3B 7625   6.475   3.333   4.550
  636DOPC   C4B 7626   6.536   3.352   4.850
  637DOPC   NC3 7627   6.381   8.224   3.050
  637DOPC   PO4 7628   6.428   8.143   3.350
  637DOPC   GL1 7629   6.422   8.147   3.650
  637DOPC   GL2 7630   6.623   8.167   3.650
  637DOPC   C1A 7631   6.454   8.204   3.950
  637DOPC   D2A 7632   6.416   8.159   4.250
  637DOPC   C3A 7633   6.372   8.188   4.550
  637DOPC   C4A 7634   6.403   8.219   4.850
  637DOPC   C1B 7635   6.741   8.110   3.950
  637DOPC   D2B 7636   6.771   8.054   4.250
  637DOPC   C3B 7637   6.736   8.064   4.550
  637DOPC   C4B 7638   6.757   8.074   4.850
  638DOPC   NC3 7639   8.839   0.293   3.050
  638DOPC   PO4 7640   8.858   0.293   3.350
  638DOPC   GL1 7641   8.868   0.250   3.650
  638DOPC   GL2 7642   8.898   0.437   3.650
  638DOPC   C1A 7643   8.863   0.296   3.950
  638DOPC   D2A 7644   8.821   0.237   4.250
  638DOPC   C3A 7645   8.866   0.217   4.550
  638DOPC   C4A 7646   8.890   0.213   4.850
  638DOPC   C1B 7647   8.955   0.613   3.950
  638DOPC   D2B 7648   8.928   0.597   4.250
  638DOPC   C3B 7649   8.919   0.575   4.550
  638DOPC   C4B 7650   8.928   0.597   4.850
  639DOPC   NC3 7651   0.479   6.772   3.050
  639DOPC   PO4 7652   0.523   6.801   3.350
  639DOPC   GL1 7653   0.519   6.720   3.650
  639DOPC   GL2 7654   0.469   6.580   3.650
  639DOPC   C1A 7655   0.489   6.763   3.950
  639DOPC   D2A 7656   0.473   6.713   4.250
  639DOPC   C3A 7657   0.515   6.759   4.550
  639DOPC   C4A 7658   0.461   6.732   4.850
  639DOPC   C1B 7659   0.334   6.402   3.950
  639DOPC   D2B 7660   0.364   6.463   4.250
  639DOPC   C3B 7661   0.405   6.424   4.550
  639DOPC   C4B 7662   0.378   6.392   4.850
  640DOPC   NC3 7663   2.888   4.955   3.050
  640DOPC   PO4 7664   2.908   4.990   3.350
  640DOPC   GL1 7665   2.884   4.951   3.650
  640DOPC   GL2 7666   2.786   5.044   3.650
  640DOPC   C1A 7667   2.869   4.956   3.950
  640DOPC   D2A 7668   2.846   4.941   4.250
  640DOPC   C3A 7669   2.880   4.944   4.550
  640DOPC   C4A 7670   2.861   4.955   4.850
  640DOPC   C1B 7671   2.588   5.184   3.950
  640DOPC   D2B 7672   2.561   5.170   4.250
  640DOPC   C3B 7673   2.586   5.193   4.550
  640DOPC   C4B 7674   2.576   5.105   4.850
  641DOPC   NC3 7675   1.334   4.226   3.050
  641DOPC   PO4 7676   1.398   4.236   3.350
  641DOPC   GL1 7677   1.332   4.252   3.650
  641DOPC   GL2 7678   1.216   4.330   3.650
  641DOPC   C1A 7679   1.413   4.255   3.950
  641DOPC   D2A 7680   1.381   4.277   4.250
  641DOPC   C3A 7681   1.411   4.228   4.550
  641DOPC   C4A 7682   1.367   4.240   4.850
  641DOPC   C1B 7683   1.065   4.310   3.950
  641DOPC   D2B 7684   0.982   4.293   4.250
  641DOPC   C3B 7685   1.061   4.289   4.550
  641DOPC   C4B 7686   1.012   4.274   4.850
  642DOPC   NC3 7687   2.813   9.493   3.050
  642DOPC   PO4 7688   2.789   9.480   3.350
  642DOPC   GL1 7689   2.827   9.498   3.650
  642DOPC   GL2 7690   2.727   9.649   3.650
  642DOPC   C1A 7691   2.805   9.493   3.950
  642DOPC   D2A 7692   2.856   9.549   4.250
  642DOPC   C3A 7693   2.786   9.507   4.550
  642DOPC   C4A 7694   2.823   9.561   4.850
  642DOPC   C1B 7695   2.662   9.810   3.950
  642DOPC   D2B 7696   2.607   9.846   4.250
  642DOPC   C3B 7697   2.648   9.809   4.550
  642DOPC   C4B 7698   2.636   9.861   4.850
  643DOPC   NC3 7699  16.727   3.648   3.050
  643DOPC   PO4 7700  16.717   3.612   3.350
  643DOPC   GL1 7701  16.685   3.663   3.650
  643DOPC   GL2 7702  16.610   3.467   3.650
  643DOPC   C1A 7703  16.698   3.675   3.950
  643DOPC   D2A 7704  16.742   3.581   4.250
  643DOPC   C3A 7705  16.693   3.666   4.550
  643DOPC   C4A 7706  16.696   3.646   4.850
  643DOPC   C1B 7707  16.453   3.408   3.950
  643DOPC   D2B 7708  16.420   3.435   4.250
  643DOPC   C3B 7709  16.433   3.366   4.550
  643DOPC   C4B 7710  16.468   3.446   4.850
  644DOPC   NC3 7711   8.731   9.597   3.050
  644DOPC   PO4 7712   8.754   9.624   3.350
  644DOPC   GL1 7713   8.750   9.599   3.650
  644DOPC   GL2 7714   8.884   9.700   3.650
  644DOPC   C1A 7715   8.722   9.550   3.950
  644DOPC   D2A 7716   8.717   9.538   4.250
  644DOPC   C3A 7717   8.740   9.557   4.550
  644DOPC   C4A 7718   8.751   9.550   4.850
  644DOPC   C1B 7719   9.069   9.718   3.950
  644DOPC   D2B 7720   9.075   9.797   4.250
  644DOPC   C3B 7721   9.014   9.764   4.550
  644DOPC   C4B 7722   9.004   9.786   4.850
  645DOPC   NC3 7723  18.279   6.688   3.050
  645DOPC   PO4 7724  18.312   6.644   3.350
  645DOPC   GL1 7725  18.309   6.714   3.650
  645DOPC   GL2 7726  18.115   6.560   3.650
  645DOPC   C1A 7727  18.311   6.667   3.950
  645DOPC   D2A 7728  18.270   6.679   4.250
  645DOPC   C3A 7729  18.304   6.718   4.550
  645DOPC   C4A 7730  18.235   6.667   4.850
  645DOPC   C1B 7731  17.983   6.453   3.950
  645DOPC   D2B 7732  17.994   6.499   4.250
  645DOPC   C3B 7733  17.959   6.495   4.550
  645DOPC   C4B 7734  17.992   6.547   4.850
  646DOPC   NC3 7735  13.562   4.160   3.050
  646DOPC   PO4 7736  13.601   4.146   3.350
  646DOPC   GL1 7737  13.622   4.151   3.650
  646DOPC   GL2 7738  13.466   4.279   3.650
  646DOPC   C1A 7739  13.577   4.107   3.950
  646DOPC   D2A 7740  13.592   4.121   4.250
  646DOPC   C3A 7741  13.565   4.114   4.550
  646DOPC   C4A 7742  13.607   4.081   4.850
  646DOPC   C1B 7743  13.453   4.398   3.950
  646DOPC   D2B 7744  13.434   4.399   4.250
  646DOPC   C3B 7745  13.457   4.411   4.550
  646DOPC   C4B 7746  13.463   4.400   4.850
  647DOPC   NC3 7747   9.838   7.461   3.050
  647DOPC   PO4 7748   9.848   7.506   3.350
  647DOPC   GL1 7749   9.781   7.431   3.650
  647DOPC   GL2 7750   9.704   7.403   3.650
  647DOPC   C1A 7751   9.763   7.458   3.950
  647DOPC   D2A 7752   9.781   7.502   4.250
  647DOPC   C3A 7753   9.828   7.469   4.550
  647DOPC   C4A 7754   9.775   7.423   4.850
  647DOPC   C1B 7755   9.558   7.208   3.950
  647DOPC   D2B 7756   9.567   7.295   4.250
  647DOPC   C3B 7757   9.554   7.287   4.550
  647DOPC   C4B 7758   9.521   7.235   4.850
  648DOPC   NC3 7759  11.061   9.810   3.050
  648DOPC   PO4 7760  11.047   9.830   3.350
  648DOPC   GL1 7761  11.096   9.786   3.650
  648DOPC   GL2 7762  11.194   9.714   3.650
  648DOPC   C1A 7763  11.113   9.823   3.950
  648DOPC   D2A 7764  11.118   9.805   4.250
  648DOPC   C3A 7765  11.069   9.808   4.550
  648DOPC   C4A 7766  11.039   9.801   4.850
  648DOPC   C1B 7767  11.296   9.532   3.950
  648DOPC   D2B 7768  11.319   9.529   4.250
  648DOPC   C3B 7769  11.359   9.535   4.550
  648DOPC   C4B 7770  11.369   9.568   4.850
  649DOPC   NC3 7771   4.256   2.175   3.050
  649DOPC   PO4 7772   4.332   2.168   3.350
  649DOPC   GL1 7773   4.235   2.141   3.650
  649DOPC   GL2 7774   4.311   1.950   3.650
  649DOPC   C1A 7775   4.233   2.117   3.950
  649DOPC   D2A 7776   4.234   2.174   4.250
  649DOPC   C3A 7777   4.248   2.130   4.550
  649DOPC   C4A 7778   4.241   2.190   4.850
  649DOPC   C1B 7779   4.272   1.812   3.950
  649DOPC   D2B 7780   4.327   1.809   4.250
  649DOPC   C3B 7781   4.322   1.788   4.550
  649DOPC   C4B 7782   4.254   1.796   4.850
  650DOPC   NC3 7783   9.095   1.103   3.050
  650DOPC   PO4 7784   9.028   1.124   3.350
  650DOPC   GL1 7785   9.068   1.108   3.650
  650DOPC   GL2 7786   8.869   1.228   3.650
  650DOPC   C1A 7787   9.089   1.064   3.950
  650DOPC   D2A 7788   9.056   1.106   4.250
  650DOPC   C3A 7789   9.065   1.150   4.550
  650DOPC   C4A 7790   9.086   1.072   4.850
  650DOPC   C1B 7791   8.763   1.263   3.950
  650DOPC   D2B 7792   8.727   1.270   4.250
  650DOPC   C3B 7793   8.740   1.344   4.550
  650DOPC   C4B 7794   8.741   1.300   4.850
  651DOPC   NC3 7795  15.792   7.996   3.050
  651DOPC   PO4 7796  15.812   7.956   3.350
  651DOPC   GL1 7797  15.809   7.919   3.650
  651DOPC   GL2 7798  15.775   8.124   3.650
  651DOPC   C1A 7799  15.777   7.949   3.950
  651DOPC   D2A 7800  15.816   7.941   4.250
  651DOPC   C3A 7801  15.817   7.905   4.550
  651DOPC   C4A 7802  15.787   7.904   4.850
  651DOPC   C1B 7803  15.817   8.335   3.950
  651DOPC   D2B 7804  15.807   8.319   4.250
  651DOPC   C3B 7805  15.876   8.348   4.550
  651DOPC   C4B 7806  15.858   8.352   4.850
  652DOPC   NC3 7807   4.435   2.617   3.050
  652DOPC   PO4 7808   4.408   2.613   3.350
  652DOPC   GL1 7809   4.358   2.600   3.650
  652DOPC   GL2 7810   4.248   2.745   3.650
  652DOPC   C1A 7811   4.427   2.594   3.950
  652DOPC   D2A 7812   4.440   2.561   4.250
  652DOPC   C3A 7813   4.350   2.631   4.550
  652DOPC   C4A 7814   4.372   2.619   4.850
  652DOPC   C1B 7815   4.153   2.910   3.950
  652DOPC   D2B 7816   4.194   2.862   4.250
  652DOPC   C3B 7817   4.118   2.838   4.550
  652DOPC   C4B 7818   4.134   2.920   4.850
  653DOPC   NC3 7819   1.757   6.534   3.050
  653DOPC   PO4 7820   1.835   6.574   3.350
  653DOPC   GL1 7821   1.818   6.495   3.650
  653DOPC   GL2 7822   1.973   6.635   3.650
  653DOPC   C1A 7823   1.812   6.550   3.950
  653DOPC   D2A 7824   1.780   6.512   4.250
  653DOPC   C3A 7825   1.850   6.500   4.550
  653DOPC   C4A 7826   1.782   6.568   4.850
  653DOPC   C1B 7827   2.191   6.674   3.950
  653DOPC   D2B 7828   2.125   6.682   4.250
  653DOPC   C3B 7829   2.095   6.671   4.550
  653DOPC   C4B 7830   2.183   6.684   4.850
  654DOPC   NC3 7831   5.028   2.546   3.050
  654DOPC   PO4 7832   5.039   2.611   3.350
  654DOPC   GL1 7833   5.051   2.567   3.650
  654DOPC   GL2 7834   5.048   2.725   3.650
  654DOPC   C1A 7835   5.078   2.519   3.950
  654DOPC   D2A 7836   5.073   2.530   4.250
  654DOPC   C3A 7837   5.060   2.589   4.550
  654DOPC   C4A 7838   5.087   2.595   4.850
  654DOPC   C1B 7839   5.028   2.945   3.950
  654DOPC   D2B 7840   5.051   2.956   4.250
  654DOPC   C3B 7841   5.034   2.938   4.550
  654DOPC   C4B 7842   5.052   2.876   4.850
  655DOPC   NC3 7843  10.541   0.259   3.050
  655DOPC   PO4 7844  10.508   0.248   3.350
  655DOPC   GL1 7845  10.470   0.310   3.650
  655DOPC   GL2 7846  10.462   0.470   3.650
  655DOPC   C1A 7847  10.470   0.307   3.950
  655DOPC   D2A 7848  10.528   0.313   4.250
  655DOPC   C3A 7849  10.526   0.254   4.550
  655DOPC   C4A 7850  10.524   0.256   4.850
  655DOPC   C1B 7851  10.402   0.571   3.950
  655DOPC   D2B 7852  10.361   0.618   4.250
  655DOPC   C3B 7853  10.406   0.597   4.550
  655DOPC   C4B 7854  10.341   0.560   4.850
  656DOPC   NC3 7855   1.350   0.470   3.050
  656DOPC   PO4 7856   1.400   0.388   3.350
  656DOPC   GL1 7857   1.392   0.431   3.650
  656DOPC   GL2 7858   1.154   0.395   3.650
  656DOPC   C1A 7859   1.368   0.411   3.950
  656DOPC   D2A 7860   1.371   0.433   4.250
  656DOPC   C3A 7861   1.365   0.418   4.550
  656DOPC   C4A 7862   1.345   0.390   4.850
  656DOPC   C1B 7863   1.055   0.419   3.950
  656DOPC   D2B 7864   1.037   0.481   4.250
  656DOPC   C3B 7865   1.003   0.482   4.550
  656DOPC   C4B 7866   1.043   0.409   4.850
  657DOPC   NC3 7867   4.134   8.769   3.050
  657DOPC   PO4 7868   4.169   8.734   3.350
  657DOPC   GL1 7869   4.162   8.781   3.650
  657DOPC   GL2 7870   4.293   8.860   3.650
  657DOPC   C1A 7871   4.108   8.811   3.950
  657DOPC   D2A 7872   4.129   8.751   4.250
  657DOPC   C3A 7873   4.104   8.776   4.550
  657DOPC   C4A 7874   4.169   8.757   4.850
  657DOPC   C1B 7875   4.370   8.973   3.950
  657DOPC   D2B 7876   4.364   9.028   4.250
  657DOPC   C3B 7877   4.384   8.993   4.550
  657DOPC   C4B 7878   4.425   9.020   4.850
  658DOPC   NC3 7879  17.923   5.054   3.050
  658DOPC   PO4 7880  17.972   5.089   3.350
  658DOPC   GL1 7881  17.941   5.062   3.650
  658DOPC   GL2 7882  18.134   5.092   3.650
  658DOPC   C1A 7883  17.924   5.081   3.950
  658DOPC   D2A 7884  17.945   5.013   4.250
  658DOPC   C3A 7885  17.933   5.064   4.550
  658DOPC   C4A 7886  17.998   5.088   4.850
  658DOPC   C1B 7887  18.302   5.056   3.950
  658DOPC   D2B 7888  18.278   5.047   4.250
  658DOPC   C3B 7889  18.345   5.075   4.550
  658DOPC   C4B 7890  18.272   5.028   4.850
  659DOPC   NC3 7891   0.413   1.749   3.050
  659DOPC   PO4 7892   0.438   1.839   3.350
  659DOPC   GL1 7893   0.409   1.831   3.650
  659DOPC   GL2 7894   0.443   1.979   3.650
  659DOPC   C1A 7895   0.375   1.777   3.950
  659DOPC   D2A 7896   0.418   1.758   4.250
  659DOPC   C3A 7897   0.403   1.765   4.550
  659DOPC   C4A 7898   0.433   1.815   4.850
  659DOPC   C1B 7899   0.500   2.194   3.950
  659DOPC   D2B 7900   0.457   2.115   4.250
  659DOPC   C3B 7901   0.497   2.178   4.550
  659DOPC   C4B 7902   0.501   2.179   4.850
  660DOPC   NC3 7903  19.568   7.558   3.050
  660DOPC   PO4 7904  19.629   7.570   3.350
  660DOPC   GL1 7905  19.623   7.552   3.650
  660DOPC   GL2 7906  19.654   7.395   3.650
  660DOPC   C1A 7907  19.642   7.477   3.950
  660DOPC   D2A 7908  19.641   7.566   4.250
  660DOPC   C3A 7909  19.550   7.478   4.550
  660DOPC   C4A 7910  19.564   7.516   4.850
  660DOPC   C1B 7911  19.768   7.221   3.950
  660DOPC   D2B 7912  19.702   7.234   4.250
  660DOPC   C3B 7913  19.736   7.215   4.550
  660DOPC   C4B 7914  19.769   7.212   4.850
  661DOPC   NC3 7915  13.698   5.776   3.050
  661DOPC   PO4 7916  13.648   5.838   3.350
  661DOPC   GL1 7917  13.686   5.809   3.650
  661DOPC   GL2 7918  13.553   5.808   3.650
  661DOPC   C1A 7919  13.725   5.745   3.950
  661DOPC   D2A 7920  13.655   5.777   4.250
  661DOPC   C3A 7921  13.646   5.812   4.550
  661DOPC   C4A 7922  13.647   5.799   4.850
  661DOPC   C1B 7923  13.367   5.855   3.950
  661DOPC   D2B 7924  13.315   5.819   4.250
  661DOPC   C3B 7925  13.290   5.872   4.550
  661DOPC   C4B 7926  13.329   5.850   4.850
  662DOPC   NC3 7927   3.366   6.528   3.050
  662DOPC   PO4 7928   3.321   6.571   3.350
  662DOPC   GL1 7929   3.376   6.511   3.650
  662DOPC   GL2 7930   3.485   6.558   3.650
  662DOPC   C1A 7931   3.308   6.512   3.950
  662DOPC   D2A 7932   3.373   6.536   4.250
  662DOPC   C3A 7933   3.315   6.541   4.550
  662DOPC   C4A 7934   3.319   6.523   4.850
  662DOPC   C1B 7935   3.689   6.662   3.950
  662DOPC   D2B 7936   3.648   6.663   4.250
  662DOPC   C3B 7937   3.643   6.614   4.550
  662DOPC   C4B 7938   3.673   6.650   4.850
  663DOPC   NC3 7939   5.681   6.485   3.050
  663DOPC   PO4 7940   5.716   6.433   3.350
  663DOPC   GL1 7941   5.689   6.465   3.650
  663DOPC   GL2 7942   5.816   6.608   3.650
  663DOPC   C1A 7943   5.755   6.442   3.950
  663DOPC   D2A 7944   5.725   6.488   4.250
  663DOPC   C3A 7945   5.696   6.406   4.550
  663DOPC   C4A 7946   5.760   6.437   4.850
  663DOPC   C1B 7947   5.936   6.782   3.950
  663DOPC   D2B 7948   5.926   6.738   4.250
  663DOPC   C3B 7949   5.954   6.706   4.550
  663DOPC   C4B 7950   5.907   6.700   4.850
  664DOPC   NC3 7951  10.261   4.307   3.050
  664DOPC   PO4 7952  10.296   4.268   3.350
  664DOPC   GL1 7953  10.270   4.324   3.650
  664DOPC   GL2 7954  10.467   4.233   3.650
  664DOPC   C1A 7955  10.293   4.332   3.950
  664DOPC   D2A 7956  10.228   4.266   4.250
  664DOPC   C3A 7957  10.248   4.303   4.550
  664DOPC   C4A 7958  10.294   4.294   4.850
  664DOPC   C1B 7959  10.604   4.233   3.950
  664DOPC   D2B 7960  10.573   4.206   4.250
  664DOPC   C3B 7961  10.637   4.288   4.550
  664DOPC   C4B 7962  10.656   4.223   4.850
  665DOPC   NC3 7963   4.967   6.004   3.050
  665DOPC   PO4 7964   4.972   5.943   3.350
  665DOPC   GL1 7965   4.993   6.024   3.650
  665DOPC   GL2 7966   5.017   5.798   3.650
  665DOPC   C1A 7967   4.964   5.993   3.950
  665DOPC   D2A 7968   4.976   5.960   4.250
  665DOPC   C3A 7969   4.986   5.996   4.550
  665DOPC   C4A 7970   4.947   6.027   4.850
  665DOPC   C1B 7971   5.082   5.671   3.950
  665DOPC   D2B 7972   5.149   5.678   4.250
  665DOPC   C3B 7973   5.081   5.618   4.550
  665DOPC   C4B 7974   5.147   5.659   4.850
  666DOPC   NC3 7975   6.662   2.110   3.050
  666DOPC   PO4 7976   6.745   2.144   3.350
  666DOPC   GL1 7977   6.671   2.107   3.650
  666DOPC   GL2 7978   6.596   1.963   3.650
  666DOPC   C1A 7979   6.682   2.055   3.950
  666DOPC   D2A 7980   6.725   2.069   4.250
  666DOPC   C3A 7981   6.718   2.098   4.550
  666DOPC   C4A 7982   6.714   2.137   4.850
  666DOPC   C1B 7983   6.468   1.847   3.950
  666DOPC   D2B 7984   6.418   1.838   4.250
  666DOPC   C3B 7985   6.509   1.859   4.550
  666DOPC   C4B 7986   6.445   1.847   4.850
  667DOPC   NC3 7987  18.763   8.280   3.050
  667DOPC   PO4 7988  18.777   8.231   3.350
  667DOPC   GL1 7989  18.785   8.281   3.650
  667DOPC   GL2 7990  18.907   8.110   3.650
  667DOPC   C1A 7991  18.733   8.207   3.950
  667DOPC   D2A 7992  18.759   8.223   4.250
  667DOPC   C3A 7993  18.711   8.221   4.550
  667DOPC   C4A 7994  18.790   8.220   4.850
  667DOPC   C1B 7995  19.063   8.009   3.950
  667DOPC   D2B 7996  19.066   7.996   4.250
  667DOPC   C3B 7997  19.075   8.023   4.550
  667DOPC   C4B 7998  19.033   8.015   4.850
  668DOPC   NC3 7999  15.907   0.290   3.050
  668DOPC   PO4 8000  15.906   0.317   3.350
  668DOPC   GL1 8001  15.953   0.275   3.650
  668DOPC   GL2 8002  15.869   0.412   3.650
  668DOPC   C1A 8003  15.889   0.253   3.950
  668DOPC   D2A 8004  15.920   0.307   4.250
  668DOPC   C3A 8005  15.938   0.341   4.550
  668DOPC   C4A 8006  15.961   0.254   4.850
  668DOPC   C1B 8007  15.669   0.603   3.950
  668DOPC   D2B 8008  15.723   0.606   4.250
  668DOPC   C3B 8009  15.660   0.610   4.550
  668DOPC   C4B 8010  15.688   0.590   4.850
  669DOPC   NC3 8011   2.543   4.297   3.050
  669DOPC   PO4 8012   2.582   4.294   3.350
  669DOPC   GL1 8013   2.579   4.383   3.650
  669DOPC   GL2 8014   2.725   4.272   3.650
  669DOPC   C1A 8015   2.560   4.313   3.950
  669DOPC   D2A 8016   2.546   4.351   4.250
  669DOPC   C3A 8017   2.554   4.299   4.550
  669DOPC   C4A 8018   2.525   4.360   4.850
  669DOPC   C1B 8019   2.889   4.243   3.950
  669DOPC   D2B 8020   2.888   4.210   4.250
  669DOPC   C3B 8021   2.911   4.219   4.550
  669DOPC   C4B 8022   2.865   4.264   4.850
  670DOPC   NC3 8023  15.194   9.673   3.050
  670DOPC   PO4 8024  15.269   9.715   3.350
  670DOPC   GL1 8025  15.210   9.749   3.650
  670DOPC   GL2 8026  15.026   9.647   3.650
  670DOPC   C1A 8027  15.233   9.695   3.950
  670DOPC   D2A 8028  15.234   9.701   4.250
  670DOPC   C3A 8029  15.254   9.707   4.550
  670DOPC   C4A 8030  15.264   9.680   4.850
  670DOPC   C1B 8031  14.874   9.660   3.950
  670DOPC   D2B 8032  14.877   9.585   4.250
  670DOPC   C3B 8033  14.845   9.640   4.550
  670DOPC   C4B 8034  14.845   9.648   4.850
  671DOPC   NC3 8035   9.516   5.721   3.050
  671DOPC   PO4 8036   9.487   5.726   3.350
  671DOPC   GL1 8037   9.491   5.811   3.650
  671DOPC   GL2 8038   9.661   5.834   3.650
  671DOPC   C1A 8039   9.528   5.812   3.950
  671DOPC   D2A 8040   9.454   5.758   4.250
  671DOPC   C3A 8041   9.471   5.813   4.550
  671DOPC   C4A 8042   9.536   5.797   4.850
  671DOPC   C1B 8043   9.799   5.853   3.950
  671DOPC   D2B 8044   9.853   5.905   4.250
  671DOPC   C3B 8045   9.835   5.834   4.550
  671DOPC   C4B 8046   9.832   5.907   4.850
  672PF10C   C1 8047  14.929   5.679   2.150
  672PF10C   F2 8048  15.122   5.985   2.450
  672PF10C   F3 8049  14.955   5.663   2.750
  672PF10C   F4 8050  15.120   5.992   3.050
  672PF10C   F5 8051  14.992   5.622   3.350
  672PF10C   F6 8052  15.132   5.957   3.650
  672PF10C   F7 8053  14.972   5.678   3.950
  672PF10C   F8 8054  15.107   6.013   4.250
  672PF10C   F9 8055  14.934   5.634   4.550
  672PF10C  F10 8056  14.914   5.637   4.850
  673PF10C   C1 8057  13.364   5.133   2.150
  673PF10C   F2 8058  13.716   5.009   2.450
  673PF10C   F3 8059  13.300   5.077   2.750
  673PF10C   F4 8060  13.708   4.998   3.050
  673PF10C   F5 8061  13.341   5.109   3.350
  673PF10C   F6 8062  13.709   4.952   3.650
  673PF10C   F7 8063  13.333   5.062   3.950
  673PF10C   F8 8064  13.667   4.987   4.250
  673PF10C   F9 8065  13.350   5.085   4.550
  673PF10C  F10 8066  13.328   5.090   4.850
  674PF10C   C1 8067  13.586   8.794   2.150
  674PF10C   F2 8068  13.449   9.067   2.450
  674PF10C   F3 8069  13.643   8.706   2.750
  674PF10C   F4 8070  13.407   9.063   3.050
  674PF10C   F5 8071  13.588   8.747   3.350
  674PF10C   F6 8072  13.437   9.079   3.650
  674PF10C   F7 8073  13.656   8.793   3.950
  674PF10C   F8 8074  13.415   9.039   4.250
  674PF10C   F9 8075  13.630   8.716   4.550
  674PF10C  F10 8076  13.656   8.800   4.850
  675W        W 8077   0.285   8.361   8.335
  676W        W 8078  15.378   3.588   9.308
  677W        W 8079   8.095   2.168   9.781
  678W        W 8080   7.118   2.648   8.811
  679W        W 8081  13.418   3.100   8.353
  680W        W 8082  18.318   8.342   1.230
  681W        W 8083   8.558   5.031   9.767
  682W        W 8084  15.372   6.935   9.287
  683W        W 8085   7.120   5.480   2.179
  684W        W 8086   7.102   3.604   0.261
  685W        W 8087  15.382   7.891   9.800
  686W        W 8088   6.098   5.002   1.207
  687W        W 8089   7.605   4.543   0.250
  688W        W 8090   4.672   7.404   9.333
  689W        W 8091  11.959   2.651   9.790
  690W        W 8092   7.082   9.293   8.827
  691W        W 8093   8.094   4.568   2.145
  692W        W 8094  18.799   2.176   0.280
  693W        W 8095  11.965   9.318   2.179
  694W        W 8096   0.761   6.463   1.208
  695W        W 8097   1.752   5.990   9.800
  696W        W 8098  18.822   1.223   9.315
  697W        W 8099   5.127   1.674   0.717
  698W        W 8100   5.155   7.866   7.866
  699W        W 8101   7.609   2.661   1.686
  700W        W 8102   3.196   3.134   1.207
  701W        W 8103   1.268   8.344   9.298
  702W        W 8104  11.962   8.846   1.192
  703W        W 8105  18.312   2.619   1.684
  704W        W 8106  16.840   5.012   0.261
  705W        W 8107  10.499   0.720   1.699
  706W        W 8108   4.153   0.762   0.745
  707W        W 8109   0.282   5.014   9.768
  708W        W 8110   0.735   5.493   2.655
  709W        W 8111   9.556   0.266   1.705
  710W        W 8112   6.604   7.902   1.234
  711W        W 8113  15.407   1.230   8.354
  712W        W 8114  16.361   1.701   9.300
  713W        W 8115   9.031   3.586   0.715
  714W        W 8116   1.267   0.268   2.183
  715W        W 8117  16.863   9.803   8.817
  716W        W 8118  18.326   0.283   0.271
  717W        W 8119  19.275   4.084   7.416
  718W        W 8120   0.759   1.226   1.711
  719W        W 8121  16.867   4.544   0.756
  720W        W 8122   5.641   9.775   9.333
  721W        W 8123  10.983   6.941   1.706
  722W        W 8124  13.442   2.159   0.264
  723W        W 8125  18.307   5.989   1.215
  724W        W 8126  14.438   6.909   1.219
  725W        W 8127  14.403   3.604   7.868
  726W        W 8128  17.320   5.483   8.852
  727W        W 8129  19.793   1.200   1.677
  728W        W 8130  14.922   7.904   9.318
  729W        W 8131   5.649   7.404   0.252
  730W        W 8132  11.471   2.625   1.692
  731W        W 8133  17.337   3.109   8.354
  732W        W 8134   2.221   5.002   9.308
  733W        W 8135   6.632   8.341   7.418
  734W        W 8136   9.046   0.242   7.867
  735W        W 8137   4.642   2.154   8.852
  736W        W 8138  18.318   0.748   2.177
  737W        W 8139  10.506   9.793   8.348
  738W        W 8140  16.860   6.909   8.822
  739W        W 8141   4.193   3.129   0.732
  740W        W 8142  19.309   3.591   7.894
  741W        W 8143   5.618   5.521   1.223
  742W        W 8144  11.983   7.403   1.672
  743W        W 8145   9.548   5.023   8.828
  744W        W 8146   0.752   9.762   9.293
  745W        W 8147  17.319   3.587   9.776
  746W        W 8148  15.385   0.244   1.673
  747W        W 8149  11.017   2.627   8.835
  748W        W 8150  15.399   0.278   7.873
  749W        W 8151   9.041   5.522   0.245
  750W        W 8152  19.312   0.256   2.157
  751W        W 8153  12.963   1.199   9.310
  752W        W 8154   2.711   5.520   1.223
  753W        W 8155   1.743   7.880   9.290
  754W        W 8156   2.697   5.015   2.151
  755W        W 8157  11.507   1.232   9.803
  756W        W 8158  12.487   5.961   8.358
  757W        W 8159  11.483   6.443   9.792
  758W        W 8160  11.465   4.553   1.197
  759W        W 8161   0.740   4.533   1.216
  760W        W 8162  15.896   5.988   8.839
  761W        W 8163  18.804   5.000   0.753
  762W        W 8164  12.476   4.569   0.732
  763W        W 8165   4.676   1.192   2.179
  764W        W 8166   4.163   7.882   2.144
  765W        W 8167  11.996   4.071   0.716
  766W        W 8168  11.476   3.130   8.362
  767W        W 8169   3.703   4.081   0.725
  768W        W 8170   8.548   1.224   9.797
  769W        W 8171  11.010   6.437   0.270
  770W        W 8172  19.299   6.929   2.157
  771W        W 8173  16.866   9.300   1.690
  772W        W 8174  11.511   6.469   1.712
  773W        W 8175   4.664   3.098   0.752
  774W        W 8176  14.437   2.629   9.318
  775W        W 8177  16.348   3.578   8.356
  776W        W 8178   3.203   9.300   8.825
  777W        W 8179   0.286   5.990   0.246
  778W        W 8180   6.117   3.101   8.836
  779W        W 8181   0.271   8.362   7.890
  780W        W 8182  17.808   6.456   0.253
  781W        W 8183  11.997   3.588   0.727
  782W        W 8184  13.928   2.654   1.202
  783W        W 8185   2.199   7.871   9.794
  784W        W 8186   6.590   3.576   2.145
  785W        W 8187  11.489   1.204   8.829
  786W        W 8188  13.909   1.238   7.859
  787W        W 8189   7.575   0.264   2.186
  788W        W 8190  11.008   1.711   0.726
  789W        W 8191   4.185   6.445   0.255
  790W        W 8192   5.170   6.940   1.204
  791W        W 8193   0.751   0.240   9.795
  792W        W 8194  11.024   0.756   8.816
  793W        W 8195  11.021   5.990   8.351
  794W        W 8196  16.385   6.440   0.239
  795W        W 8197  19.269   2.651   9.786
  796W        W 8198  15.900   4.058   7.904
  797W        W 8199  13.936   7.424   2.145
  798W        W 8200  10.043   8.834   8.838
  799W        W 8201  14.909   8.819   9.327
  800W        W 8202  14.431   9.302   7.388
  801W        W 8203   8.089   9.791   9.295
  802W        W 8204   0.767   3.610   1.230
  803W        W 8205  13.441   3.126   1.710
  804W        W 8206   7.100   5.995   9.786
  805W        W 8207  12.448   5.517   2.186
  806W        W 8208  13.447   7.895   2.147
  807W        W 8209   5.165   3.140   0.283
  808W        W 8210  11.982   5.993   8.851
  809W        W 8211  11.000   7.410   0.265
  810W        W 8212   5.146   8.834   1.695
  811W        W 8213   9.054   5.479   1.696
  812W        W 8214   7.093   7.896   8.356
  813W        W 8215   3.201   8.853   0.715
  814W        W 8216   5.652   5.030   9.317
  815W        W 8217   1.255   3.113   9.793
  816W        W 8218   7.573   4.543   8.811
  817W        W 8219  12.460   8.829   0.282
  818W        W 8220   8.061   1.692   1.679
  819W        W 8221  12.935   3.594   9.314
  820W        W 8222   5.631   3.110   2.663
  821W        W 8223   4.650   6.431   0.743
  822W        W 8224  10.528   9.778   0.743
  823W        W 8225   9.058   9.298   1.673
  824W        W 8226  19.774   1.688   8.842
  825W        W 8227   7.101   1.677   1.679
  826W        W 8228  15.859   1.678   1.212
  827W        W 8229  13.425   8.823   0.279
  828W        W 8230   3.209   2.642   0.282
  829W        W 8231  13.931   7.388   1.691
  830W        W 8232   2.719   0.246   0.241
  831W        W 8233  13.439   1.219   8.845
  832W        W 8234  10.012   0.727   2.165
  833W        W 8235   8.061   7.400   2.164
  834W        W 8236   0.255   0.252   8.369
  835W        W 8237   3.186   6.941   0.740
  836W        W 8238   2.210   3.573   1.706
  837W        W 8239   7.599   1.192   9.318
  838W        W 8240   8.077   8.335   1.207
  839W        W 8241   6.596   4.053   8.833
  840W        W 8242  19.770   2.143   8.366
  841W        W 8243   2.716   8.856   1.191
  842W        W 8244  11.481   3.593   9.791
  843W        W 8245  14.891   4.053   9.331
  844W        W 8246   6.113   9.307   0.256
  845W        W 8247   6.102   6.449   7.867
  846W        W 8248  12.950   2.147   7.878
  847W        W 8249  15.398   1.669   0.737
  848W        W 8250   6.595   0.263   7.902
  849W        W 8251  16.850   4.565   9.784
  850W        W 8252   1.255   1.668   8.838
  851W        W 8253  18.794   8.837   7.871
  852W        W 8254  19.789   7.388   1.711
  853W        W 8255   7.117   2.172   1.706
  854W        W 8256  12.934   0.255   2.181
  855W        W 8257  10.002   8.345   0.737
  856W        W 8258  15.372   7.861   8.810
  857W        W 8259  10.535   7.872   7.901
  858W        W 8260  11.967   9.296   8.822
  859W        W 8261   6.134   0.241   2.146
  860W        W 8262   3.663   4.542   1.202
  861W        W 8263   0.289   4.536   1.222
  862W        W 8264  10.012   7.896   7.868
  863W        W 8265   6.625   1.679   7.858
  864W        W 8266  17.348   8.818   0.756
  865W        W 8267  18.328   8.815   8.828
  866W        W 8268   8.582   1.220   2.650
  867W        W 8269   3.675   8.340   8.812
  868W        W 8270  13.461   3.591   1.233
  869W        W 8271   9.072   2.157   7.877
  870W        W 8272  13.458   5.509   1.197
  871W        W 8273  19.802   3.125   2.188
  872W        W 8274   6.606   1.218   1.703
  873W        W 8275  12.482   4.548   7.408
  874W        W 8276   4.194   2.153   8.854
  875W        W 8277   3.211   0.241   9.320
  876W        W 8278   5.619   5.037   7.864
  877W        W 8279   7.106   4.529   0.728
  878W        W 8280  11.502   6.947   1.193
  879W        W 8281  11.009   4.525   8.344
  880W        W 8282  10.023   1.216   7.881
  881W        W 8283  19.297   0.251   7.895
  882W        W 8284  13.446   8.825   8.377
  883W        W 8285   3.192   9.769   8.816
  884W        W 8286  19.791   1.683   1.232
  885W        W 8287  15.387   0.270   2.150
  886W        W 8288   8.560   3.101   2.622
  887W        W 8289   4.164   7.861   0.725
  888W        W 8290  11.021   3.118   2.665
  889W        W 8291  19.785   7.398   1.209
  890W        W 8292  15.871   3.096   1.221
  891W        W 8293   3.174   0.740   2.648
  892W        W 8294  11.968   6.907   2.154
  893W        W 8295  11.004   5.961   9.286
  894W        W 8296   3.196   4.089   1.224
  895W        W 8297  19.796   7.904   0.749
  896W        W 8298  17.832   8.346   0.260
  897W        W 8299  13.433   0.758   2.172
  898W        W 8300  11.486   2.183   2.651
  899W        W 8301   3.186   3.608   8.847
  900W        W 8302   5.656   1.217   0.253
  901W        W 8303  16.345   9.804   9.785
  902W        W 8304  14.423   3.574   9.308
  903W        W 8305   7.109   2.186   1.232
  904W        W 8306  13.428   0.254   1.690
  905W        W 8307  18.313   1.202   2.190
  906W        W 8308  12.927   4.535   1.689
  907W        W 8309   8.080   0.737   9.326
  908W        W 8310  17.825   8.368   9.303
  909W        W 8311  16.369   3.583   9.796
  910W        W 8312   9.516   4.556   2.165
  911W        W 8313   5.658   1.230   7.901
  912W        W 8314  14.922   9.323   7.903
  913W        W 8315  10.020   6.916   1.679
  914W        W 8316   7.107   9.765   1.220
  915W        W 8317  18.815   1.198   2.190
  916W        W 8318   4.192   6.431   9.799
  917W        W 8319  19.316   4.080   0.750
  918W        W 8320   2.209   6.946   0.276
  919W        W 8321  15.413   2.635   9.772
  920W        W 8322   3.178   5.962   1.672
  921W        W 8323  19.775   5.993   2.159
  922W        W 8324   8.549   5.512   1.667
  923W        W 8325  11.990   2.636   9.301
  924W        W 8326   1.756   2.662   0.750
  925W        W 8327  13.923   9.294   9.290
  926W        W 8328  17.835   2.648   8.378
  927W        W 8329  15.884   5.004   9.300
  928W        W 8330   0.733   6.923   1.705
  929W        W 8331   5.615   5.991   2.666
  930W        W 8332  10.017   6.952   8.850
  931W        W 8333   7.569   0.743   7.883
  932W        W 8334   6.627   7.898   0.743
  933W        W 8335   9.523   5.994   0.258
  934W        W 8336  11.988   0.277   9.293
  935W        W 8337   9.051   6.943   9.763
  936W        W 8338  13.946   2.167   8.369
  937W        W 8339   7.564   5.953   9.301
  938W        W 8340   6.133   0.756   1.693
  939W        W 8341   7.570   5.956   0.253
  940W        W 8342   4.651   9.794   2.650
  941W        W 8343   7.080   5.507   7.425
  942W        W 8344  12.439   2.166   9.768
  943W        W 8345   7.580   6.441   7.878
  944W        W 8346   1.262   4.065   0.268
  945W        W 8347   1.714   6.447   1.693
  946W        W 8348   9.057   9.783   9.291
  947W        W 8349   9.033   5.968   8.345
  948W        W 8350   6.600   0.275   1.712
  949W        W 8351   3.679   9.774   8.359
  950W        W 8352  14.413   5.032   9.299
  951W        W 8353   7.113   1.205   9.796
  952W        W 8354   9.060   1.683   0.732
  953W        W 8355  15.413   5.011   9.289
  954W        W 8356   2.239   8.843   9.314
  955W        W 8357   1.733   8.842   7.863
  956W        W 8358  16.864   3.134   2.619
  957W        W 8359  16.849   4.077   1.710
  958W        W 8360  13.915   7.412   7.891
  959W        W 8361  10.522   7.896   9.773
  960W        W 8362  11.500   4.559   2.627
  961W        W 8363  13.440   2.642   7.887
  962W        W 8364   6.613   9.288   8.363
  963W        W 8365   5.136   4.555   8.823
  964W        W 8366  13.908   5.011   9.327
  965W        W 8367  10.005   6.454   8.339
  966W        W 8368   6.605   2.642   8.377
  967W        W 8369  14.890   8.848   8.365
  968W        W 8370   4.175   5.963   7.859
  969W        W 8371  14.896   6.921   9.790
  970W        W 8372   2.700   4.546   0.724
  971W        W 8373  16.830   5.974   8.835
  972W        W 8374   2.220   7.872   8.377
  973W        W 8375   9.515   2.654   8.343
  974W        W 8376   4.661   6.475   1.705
  975W        W 8377   7.604   1.694   0.245
  976W        W 8378  18.790   6.468   9.323
  977W        W 8379  19.311   1.233   0.717
  978W        W 8380   4.655   1.681   1.669
  979W        W 8381   5.647   2.651   9.328
  980W        W 8382   0.755   7.869   0.743
  981W        W 8383  13.435   5.967   7.868
  982W        W 8384   1.734   5.961   8.354
  983W        W 8385   1.709   1.194   1.225
  984W        W 8386  17.823   4.064   2.161
  985W        W 8387  14.395   2.164   0.759
  986W        W 8388  12.928   1.236   2.155
  987W        W 8389  11.997   8.357   8.360
  988W        W 8390  12.454   4.060   1.710
  989W        W 8391   9.025   3.133   7.878
  990W        W 8392   3.190   8.375   8.369
  991W        W 8393   7.108   4.530   8.856
  992W        W 8394   8.556   0.246   8.855
  993W        W 8395  12.931   5.983   1.209
  994W        W 8396  11.019   5.960   2.183
  995W        W 8397   9.033   6.928   8.374
  996W        W 8398   8.070   9.331   0.284
  997W        W 8399   7.591   1.674   7.896
  998W        W 8400   4.173   6.918   1.679
  999W        W 8401   7.592   3.592   8.374
 1000W        W 8402  12.932   7.893   8.365
 1001W        W 8403   1.725   2.622   7.391
 1002W        W 8404   2.707   9.797   0.249
 1003W        W 8405   3.704   6.921   2.178
 1004W        W 8406  13.437   8.820   8.832
 1005W        W 8407   4.148   2.143   8.338
 1006W        W 8408  11.466   5.043   2.621
 1007W        W 8409  17.350   9.794   1.198
 1008W        W 8410  16.369   0.742   0.283
 1009W        W 8411   4.177   5.498   8.334
 1010W        W 8412   9.062   6.449   8.835
 1011W        W 8413  16.357   2.657   9.302
 1012W        W 8414   9.540   9.302   8.853
 1013W        W 8415  15.387   3.591   8.835
 1014W        W 8416  11.961   9.297   1.687
 1015W        W 8417   0.734   2.637   2.659
 1016W        W 8418   8.079   5.974   7.892
 1017W        W 8419  19.277   7.425   1.232
 1018W        W 8420   9.039   9.769   8.820
 1019W        W 8421  18.797   3.116   1.672
 1020W        W 8422   1.234   2.666   0.724
 1021W        W 8423  18.799   2.176   7.869
 1022W        W 8424   6.626   6.434   0.248
 1023W        W 8425   2.693   9.809   8.351
 1024W        W 8426  16.873   5.515   7.410
 1025W        W 8427  14.398   7.861   0.760
 1026W        W 8428   4.659   9.785   0.271
 1027W        W 8429  11.974   0.283   9.806
 1028W        W 8430  12.473   0.745   7.876
 1029W        W 8431  11.479   9.289   1.699
 1030W        W 8432  16.378   5.477   0.723
 1031W        W 8433  13.929   2.165   1.228
 1032W        W 8434   1.236   6.455   9.301
 1033W        W 8435  12.485   6.949   2.185
 1034W        W 8436  16.858   3.123   7.890
 1035W        W 8437  18.808   9.779   0.751
 1036W        W 8438  11.998   0.729   9.766
 1037W        W 8439  15.406   2.169   9.309
 1038W        W 8440   3.690   1.236   9.775
 1039W        W 8441  18.809   5.477   0.258
 1040W        W 8442   1.756   9.794   1.689
 1041W        W 8443   6.616   2.156   8.857
 1042W        W 8444   7.113   0.727   2.179
 1043W        W 8445  13.937   4.088   1.223
 1044W        W 8446  12.959   1.700   7.858
 1045W        W 8447  17.818   6.459   8.356
 1046W        W 8448  14.404   6.937   8.850
 1047W        W 8449  10.047   4.085   8.824
 1048W        W 8450  19.295   9.769   0.241
 1049W        W 8451  19.312   7.413   7.397
 1050W        W 8452  11.506   5.511   0.277
 1051W        W 8453   9.037   6.456   8.335
 1052W        W 8454  15.411   3.135   7.394
 1053W        W 8455   2.224   0.715   9.305
 1054W        W 8456  15.901   7.860   9.770
 1055W        W 8457   7.609   0.285   9.305
 1056W        W 8458  14.894   4.544   1.208
 1057W        W 8459  18.308   3.574   0.275
 1058W        W 8460  19.778   7.392   8.849
 1059W        W 8461  17.338   1.238   1.208
 1060W        W 8462  10.995   6.440   1.229
 1061W        W 8463  17.324   0.249   8.830
 1062W        W 8464   0.282   3.131   0.739
 1063W        W 8465  13.437   4.061   2.173
 1064W        W 8466   3.184   5.485   1.713
 1065W        W 8467  14.419   2.624   2.189
 1066W        W 8468   6.100   6.908   8.374
 1067W        W 8469  15.411   7.860   1.195
 1068W        W 8470  15.902   0.757   2.150
 1069W        W 8471  18.306   1.193   0.761
 1070W        W 8472  13.444   1.679   1.697
 1071W        W 8473   4.158   5.489   9.293
 1072W        W 8474   2.729   2.631   9.298
 1073W        W 8475  11.979   5.005   0.739
 1074W        W 8476   8.073   8.336   0.258
 1075W        W 8477  12.972   6.911   9.295
 1076W        W 8478   3.207   2.159   8.832
 1077W        W 8479  19.761   1.234   0.716
 1078W        W 8480   2.222   2.646   0.747
 1079W        W 8481  11.961   3.119   0.253
 1080W        W 8482   2.218   9.300   9.763
 1081W        W 8483   7.078   3.588   2.152
 1082W        W 8484  19.787   4.067   0.725
 1083W        W 8485   1.266   9.294   7.420
 1084W        W 8486   4.180   3.593   7.901
 1085W        W 8487   1.237   4.059   1.210
 1086W        W 8488  17.318   6.947   7.866
 1087W        W 8489   9.550   5.994   1.194
 1088W        W 8490  18.310   7.882   0.263
 1089W        W 8491  18.338   4.048   8.824
 1090W        W 8492   4.157   1.697   2.635
 1091W        W 8493   8.557   1.235   7.396
 1092W        W 8494  14.882   0.758   9.765
 1093W        W 8495  19.790   1.217   8.823
 1094W        W 8496   7.591   8.844   1.195
 1095W        W 8497  12.954   9.788   9.321
 1096W        W 8498  14.406   4.086   7.903
 1097W        W 8499   9.546   5.519   7.871
 1098W        W 8500   2.710   7.876   9.770
 1099W        W 8501   9.052   8.354   9.785
 1100W        W 8502  13.949   0.759   8.340
 1101W        W 8503   9.041   7.859   7.862
 1102W        W 8504   2.730   9.333   0.729
 1103W        W 8505  10.011   7.420   1.226
 1104W        W 8506  11.009   9.324   0.740
 1105W        W 8507  17.839   4.533   8.349
 1106W        W 8508  13.424   5.973   1.699
 1107W        W 8509  15.877   9.800   9.784
 1108W        W 8510  19.296   6.437   8.814
 1109W        W 8511   9.030   8.824   2.153
 1110W        W 8512   3.662   3.112   0.255
 1111W        W 8513  17.841   0.717   2.172
 1112W        W 8514  14.882   4.561   7.877
 1113W        W 8515  16.837   7.902   9.306
 1114W        W 8516   5.625   4.556   9.292
 1115W        W 8517   8.086   0.268   8.359
 1116W        W 8518   5.134   4.055   0.239
 1117W        W 8519   2.694   0.257   1.697
 1118W        W 8520  10.514   1.196   8.851
 1119W        W 8521   4.187   0.242   9.319
 1120W        W 8522  18.805   0.726   7.409
 1121W        W 8523   2.198   4.066   0.256
 1122W        W 8524   2.243   4.071   1.674
 1123W        W 8525   6.629   4.054   9.793
 1124W        W 8526   2.204   2.180   1.231
 1125W        W 8527  17.834   4.562   0.729
 1126W        W 8528  18.296   8.848   7.901
 1127W        W 8529   3.200   7.883   1.229
 1128W        W 8530   4.159   8.849   0.247
 1129W        W 8531  12.949   7.381   2.182
 1130W        W 8532  18.316   8.345   8.335
 1131W        W 8533   1.716   6.442   0.720
 1132W        W 8534  11.967   5.042   1.203
 1133W        W 8535  10.033   0.733   8.351
 1134W        W 8536  18.811   6.952   8.376
 1135W        W 8537   6.101   6.936   9.308
 1136W        W 8538   5.137   2.657   0.247
 1137W        W 8539   7.572   0.726   8.369
 1138W        W 8540   1.239   3.596   2.159
 1139W        W 8541   6.141   1.235   2.157
 1140W        W 8542  10.003   6.935   9.313
 1141W        W 8543  17.363   2.659   2.154
 1142W        W 8544  11.983   2.656   8.378
 1143W        W 8545   5.166   3.107   1.678
 1144W        W 8546  14.407   9.798   7.858
 1145W        W 8547   6.627   7.903   7.887
 1146W        W 8548  12.464   0.729   1.690
 1147W        W 8549  17.337   9.808   2.170
 1148W        W 8550   8.578   7.419   7.880
 1149W        W 8551  19.309   8.374   0.281
 1150W        W 8552   8.070   7.875   0.761
 1151W        W 8553   4.677   5.960   1.685
 1152W        W 8554   7.093   1.678   9.806
 1153W        W 8555  19.770   8.372   0.756
 1154W        W 8556  17.844   9.292   2.153
 1155W        W 8557   6.104   5.985   8.380
 1156W        W 8558  15.887   3.598   1.211
 1157W        W 8559  12.487   1.712   7.878
 1158W        W 8560   5.633   7.422   7.861
 1159W        W 8561  16.872   3.596   8.353
 1160W        W 8562  11.480   0.717   1.680
 1161W        W 8563  14.882   3.599   7.892
 1162W        W 8564  10.040   9.789   8.350
 1163W        W 8565  16.381   4.545   0.743
 1164W        W 8566   9.536   5.989   2.183
 1165W        W 8567   8.547   6.925   7.386
 1166W        W 8568  13.445   1.706   0.753
 1167W        W 8569   5.648   4.058   7.871
 1168W        W 8570  19.790   6.921   1.213
 1169W        W 8571  11.977   5.007   0.257
 1170W        W 8572  14.423   6.941   0.286
 1171W        W 8573  16.382   7.401   0.717
 1172W        W 8574  15.871   9.782   1.675
 1173W        W 8575   6.589   2.664   9.325
 1174W        W 8576   8.583   7.418   0.744
 1175W        W 8577  16.845   6.908   7.871
 1176W        W 8578   3.174   2.655   7.417
 1177W        W 8579   6.588   9.764   0.280
 1178W        W 8580   0.283   5.507   1.222
 1179W        W 8581  12.935   0.282   0.240
 1180W        W 8582   8.556   4.086   0.273
 1181W        W 8583  18.302   7.869   1.208
 1182W        W 8584   2.218   7.407   0.761
 1183W        W 8585   3.690   8.819   0.271
 1184W        W 8586   6.624   5.956   8.842
 1185W        W 8587  13.946   5.971   2.164
 1186W        W 8588  13.419   8.838   7.900
 1187W        W 8589   3.689   5.955   1.210
 1188W        W 8590   3.687   6.917   9.295
 1189W        W 8591   8.056   3.125   1.704
 1190W        W 8592  11.985   3.135   7.868
 1191W        W 8593   9.554   0.736   8.845
 1192W        W 8594   5.656   6.936   8.355
 1193W        W 8595   0.257   6.431   9.301
 1194W        W 8596  11.509   2.173   9.297
 1195W        W 8597  18.305   3.107   9.763
 1196W        W 8598   4.195   5.502   9.778
 1197W        W 8599  13.461   6.472   2.183
 1198W        W 8600  18.297   4.066   2.666
 1199W        W 8601  19.777   6.447   9.780
 1200W        W 8602  10.527   6.447   7.861
 1201W        W 8603   7.565   2.626   0.273
 1202W        W 8604   7.118   9.297   1.697
 1203W        W 8605  11.003   0.747   9.791
 1204W        W 8606   6.133   2.184   2.172
 1205W        W 8607  12.464   1.706   8.849
 1206W        W 8608  11.998   3.594   9.774
 1207W        W 8609  14.405   8.831   1.696
 1208W        W 8610  19.297   4.073   8.376
 1209W        W 8611   9.550   7.386   9.329
 1210W        W 8612   5.610   4.065   1.693
 1211W        W 8613  10.043   6.915   9.793
 1212W        W 8614  19.307   2.641   9.331
 1213W        W 8615  11.012   1.191   9.808
 1214W        W 8616   9.559   2.148   9.297
 1215W        W 8617   8.550   9.794   0.735
 1216W        W 8618   8.567   4.532   1.234
 1217W        W 8619   3.217   1.713   0.721
 1218W        W 8620   9.557   9.324   9.796
 1219W        W 8621  16.870   5.955   9.791
 1220W        W 8622  12.458   1.708   1.203
 1221W        W 8623   5.644   5.482   9.315
 1222W        W 8624  13.462   9.311   0.273
 1223W        W 8625   6.589   6.907   8.356
 1224W        W 8626  12.933   1.214   1.677
 1225W        W 8627  16.379   9.322   9.803
 1226W        W 8628   7.587   5.517   8.357
 1227W        W 8629  10.507   4.049   0.269
 1228W        W 8630  10.022   1.231   0.720
 1229W        W 8631   2.207   9.802   9.801
 1230W        W 8632  19.305   8.824   9.784
 1231W        W 8633   9.071   7.421   1.688
 1232W        W 8634  19.784   9.790   9.778
 1233W        W 8635  11.952   2.626   0.242
 1234W        W 8636  13.928   3.587   7.893
 1235W        W 8637  10.048   7.894   1.201
 1236W        W 8638   6.597   1.712   7.420
 1237W        W 8639   4.163   9.301   8.854
 1238W        W 8640   9.537   6.908   2.657
 1239W        W 8641   4.153   1.702   0.267
 1240W        W 8642   1.225   9.795   8.360
 1241W        W 8643  14.900   6.942   1.713
 1242W        W 8644  13.945   3.106   9.287
 1243W        W 8645  13.939   5.480   7.895
 1244W        W 8646  10.489   8.360   7.876
 1245W        W 8647  11.488   6.926   8.825
 1246W        W 8648   6.620   0.746   1.235
 1247W        W 8649  12.482   3.573   9.793
 1248W        W 8650   9.042   5.499   8.343
 1249W        W 8651  13.454   8.358   9.776
 1250W        W 8652   0.732   8.844   1.676
 1251W        W 8653  18.819   3.581   8.833
 1252W        W 8654  11.018   5.009   0.247
 1253W        W 8655   0.269   3.577   7.885
 1254W        W 8656  13.923   8.844   8.364
 1255W        W 8657   4.170   7.903   0.281
 1256W        W 8658  11.505   4.529   9.798
 1257W        W 8659  19.310   7.888   0.744
 1258W        W 8660   9.032   2.631   8.831
 1259W        W 8661  12.450   5.990   7.864
 1260W        W 8662  19.763   2.651   0.249
 1261W        W 8663   9.549   4.058   9.294
 1262W        W 8664   8.060   8.339   9.325
 1263W        W 8665  18.822   3.120   7.889
 1264W        W 8666   3.692   5.001   8.341
 1265W        W 8667   3.218   8.841   2.654
 1266W        W 8668  19.801   0.748   1.711
 1267W        W 8669  10.992   5.966   1.672
 1268W        W 8670   6.137   8.339   8.380
 1269W        W 8671  11.002   1.707   8.350
 1270W        W 8672  19.304   9.299   0.261
 1271W        W 8673   0.771   8.379   9.765
 1272W        W 8674  17.318   5.519   7.861
 1273W        W 8675   8.580   7.885   1.238
 1274W        W 8676   0.272   1.235   0.247
 1275W        W 8677   9.512   0.758   2.143
 1276W        W 8678  14.882   8.365   0.719
 1277W        W 8679   9.538   7.872   0.754
 1278W        W 8680   9.027   8.375   8.846
 1279W        W 8681   0.763   4.049   7.871
 1280W        W 8682   6.144   5.966   0.273
 1281W        W 8683   8.569   8.374   1.209
 1282W        W 8684  11.955   9.318   1.206
 1283W        W 8685  19.798   8.335   2.190
 1284W        W 8686   0.748   0.247   8.364
 1285W        W 8687  18.322   6.915   1.234
 1286W        W 8688  12.448   5.979   0.270
 1287W        W 8689  13.426   8.369   1.699
 1288W        W 8690  13.913   8.345   1.693
 1289W        W 8691  17.327   4.561   0.724
 1290W        W 8692  12.963   4.062   0.723
 1291W        W 8693  17.343   7.901   9.302
 1292W        W 8694  16.854   0.273   0.269
 1293W        W 8695  13.426   9.772   9.294
 1294W        W 8696  13.463   1.709   9.330
 1295W        W 8697   2.727   8.353   1.698
 1296W        W 8698   8.056   7.862   9.322
 1297W        W 8699  12.965   4.053   1.707
 1298W        W 8700   2.203   0.742   9.775
 1299W        W 8701  15.890   3.615   0.265
 1300W        W 8702  14.430   7.404   9.326
 1301W        W 8703   9.546   7.902   8.846
 1302W        W 8704   0.245   5.961   7.896
 1303W        W 8705  15.864   0.753   8.346
 1304W        W 8706  19.271   1.200   0.258
 1305W        W 8707   9.557   8.826   2.161
 1306W        W 8708   9.542   4.089   8.363
 1307W        W 8709   8.078   1.690   1.221
 1308W        W 8710  19.293   0.760   9.800
 1309W        W 8711  18.797   5.015   2.176
 1310W        W 8712   7.094   7.402   8.358
 1311W        W 8713   9.519   0.725   0.243
 1312W        W 8714   6.123   2.637   7.897
 1313W        W 8715  13.939   3.101   7.874
 1314W        W 8716   3.666   0.724   8.342
 1315W        W 8717   8.566   1.217   8.354
 1316W        W 8718   7.122   4.053   1.680
 1317W        W 8719   7.088   2.147   0.755
 1318W        W 8720  12.973   4.552   8.836
 1319W        W 8721  18.819   2.169   8.823
 1320W        W 8722  19.784   6.438   1.677
 1321W        W 8723   9.517   4.053   9.766
 1322W        W 8724   4.149   6.914   1.218
 1323W        W 8725  14.910   2.663   8.358
 1324W        W 8726  16.868   7.904   8.840
 1325W        W 8727  11.960   5.953   1.217
 1326W        W 8728  12.943   5.482   0.269
 1327W        W 8729  12.483   7.890   9.806
 1328W        W 8730   6.136   0.261   1.709
 1329W        W 8731  11.969   0.719   7.899
 1330W        W 8732  10.034   4.561   7.885
 1331W        W 8733   2.213   5.491   1.224
 1332W        W 8734  18.304   7.410   7.884
 1333W        W 8735   7.574   6.457   1.714
 1334W        W 8736   1.263   3.594   1.683
 1335W        W 8737   4.669   8.351   0.240
 1336W        W 8738   8.049   5.014   9.301
 1337W        W 8739   6.108   5.490   8.368
 1338W        W 8740  19.295   0.266   9.300
 1339W        W 8741  16.385   8.811   7.383
 1340W        W 8742  10.491   7.886   9.314
 1341W        W 8743  19.801   2.663   9.769
 1342W        W 8744   6.136   8.849   1.708
 1343W        W 8745   7.585   8.822   9.800
 1344W        W 8746  14.403   4.554   9.295
 1345W        W 8747  12.943   6.943   1.221
 1346W        W 8748  12.464   5.971   9.785
 1347W        W 8749  14.914   0.239   0.724
 1348W        W 8750   9.031   4.076   8.814
 1349W        W 8751  19.800   3.587   2.154
 1350W        W 8752   2.728   4.560   9.323
 1351W        W 8753   9.531   5.025   1.672
 1352W        W 8754   5.153   7.885   9.319
 1353W        W 8755  10.041   4.093   9.304
 1354W        W 8756   0.772   2.163   8.851
 1355W        W 8757   3.691   3.124   8.810
 1356W        W 8758  13.945   4.534   9.784
 1357W        W 8759   2.217   8.829   2.154
 1358W        W 8760   9.067   2.649   1.672
 1359W        W 8761   9.553   4.050   8.842
 1360W        W 8762  12.453   3.132   2.145
 1361W        W 8763   6.143   5.524   8.830
 1362W        W 8764   6.141   2.155   9.769
 1363W        W 8765   7.077   3.592   1.211
 1364W        W 8766   7.073   5.954   9.330
 1365W        W 8767   0.266   9.804   1.216
 1366W        W 8768  18.313   3.579   7.860
 1367W        W 8769  15.403   5.512   9.294
 1368W        W 8770  12.958   2.645   0.281
 1369W        W 8771   4.181   8.855   1.197
 1370W        W 8772   7.111   5.505   9.332
 1371W        W 8773  10.530   3.582   8.812
 1372W        W 8774   0.258   4.539   8.834
 1373W        W 8775  17.815   0.727   1.680
 1374W        W 8776  10.981   5.501   0.240
 1375W        W 8777  14.902   2.661   2.175
 1376W        W 8778   4.662   1.698   2.666
 1377W        W 8779   4.654   2.143   7.897
 1378W        W 8780  19.281   7.408   8.818
 1379W        W 8781   8.093   3.605   0.742
 1380W        W 8782  12.487   1.235   7.903
 1381W        W 8783  19.760   5.505   0.748
 1382W        W 8784   6.099   2.652   0.266
 1383W        W 8785  16.869   9.808   1.214
 1384W        W 8786   9.531   9.312   2.168
 1385W        W 8787  17.329   5.511   0.255
 1386W        W 8788  18.309   5.042   9.316
 1387W        W 8789   3.677   0.285   8.348
 1388W        W 8790   6.104   1.679   9.297
 1389W        W 8791   0.766   3.120   9.306
 1390W        W 8792  16.832   8.357   7.889
 1391W        W 8793  15.386   6.434   0.259
 1392W        W 8794   1.738   2.170   0.754
 1393W        W 8795  10.506   3.098   9.318
 1394W        W 8796  11.975   5.502   0.742
 1395W        W 8797   1.238   2.631   8.370
 1396W        W 8798  11.985   7.884   1.679
 1397W        W 8799  11.492   0.264   1.693
 1398W        W 8800  15.369   1.694   8.810
 1399W        W 8801  15.411   5.039   7.884
 1400W        W 8802  12.940   6.919   1.697
 1401W        W 8803   0.747   7.873   9.310
 1402W        W 8804   1.736   9.290   1.196
 1403W        W 8805  17.816   1.238   8.377
 1404W        W 8806  11.006   5.028   9.333
 1405W        W 8807  11.953   2.632   1.228
 1406W        W 8808   2.697   1.197   0.276
 1407W        W 8809  18.310   1.698   0.714
 1408W        W 8810   7.581   6.435   9.775
 1409W        W 8811  15.386   1.705   2.187
 1410W        W 8812  12.943   0.717   2.153
 1411W        W 8813   0.751   5.503   0.750
 1412W        W 8814  16.846   1.234   2.186
 1413W        W 8815   6.101   4.560   1.196
 1414W        W 8816  17.327   2.633   0.242
 1415W        W 8817  16.848   6.933   0.249
 1416W        W 8818  13.917   3.108   0.762
 1417W        W 8819   3.659   6.475   0.719
 1418W        W 8820   2.211   7.395   9.301
 1419W        W 8821  10.523   8.813   9.775
 1420W        W 8822   4.149   9.329   0.267
 1421W        W 8823  14.417   8.818   1.196
 1422W        W 8824  12.950   9.330   8.836
 1423W        W 8825   0.272   5.490   0.731
 1424W        W 8826   0.755   3.113   0.743
 1425W        W 8827   8.097   7.402   1.681
 1426W        W 8828  15.882   1.687   7.877
 1427W        W 8829   0.763   0.270   2.185
 1428W        W 8830  17.325   6.931   8.828
 1429W        W 8831   5.658   5.018   8.852
 1430W        W 8832  11.017   6.934   0.752
 1431W        W 8833   4.645   1.204   7.882
 1432W        W 8834  10.032   7.888   8.849
 1433W        W 8835   2.222   8.817   0.738
 1434W        W 8836  16.837   0.280   1.196
 1435W        W 8837   3.669   7.884   0.240
 1436W        W 8838   7.604   8.365   9.291
 1437W        W 8839  10.999   4.527   0.250
 1438W        W 8840   8.053   0.270   7.878
 1439W        W 8841  17.359   5.967   8.820
 1440W        W 8842   6.604   3.602   9.296
 1441W        W 8843  17.825   6.922   0.270
 1442W        W 8844   5.170   1.685   0.250
 1443W        W 8845   5.655   2.154   1.711
 1444W        W 8846  13.927   4.551   1.680
 1445W        W 8847   2.699   2.664   1.688
 1446W        W 8848   4.646   2.655   8.850
 1447W        W 8849   4.651   3.599   0.242
 1448W        W 8850   8.569   2.659   0.259
 1449W        W 8851  13.444   0.740   9.769
 1450W        W 8852   4.673   3.600   2.159
 1451W        W 8853  10.021   7.394   0.746
 1452W        W 8854  17.819   8.851   9.292
 1453W        W 8855   6.632   0.733   8.849
 1454W        W 8856   7.073   5.982   7.402
 1455W        W 8857   4.648   1.683   1.208
 1456W        W 8858   8.559   7.865   8.355
 1457W        W 8859   6.633   1.216   2.151
 1458W        W 8860   8.076   7.895   7.858
 1459W        W 8861  17.820   4.550   0.275
 1460W        W 8862   8.090   4.091   8.343
 1461W        W 8863  19.803   1.681   0.258
 1462W        W 8864  17.813   5.505   9.785
 1463W        W 8865   1.267   4.049   7.860
 1464W        W 8866  19.292   5.967   7.392
 1465W        W 8867  19.785   9.292   8.371
 1466W        W 8868   1.711   0.731   0.250
 1467W        W 8869  17.811   8.825   9.802
 1468W        W 8870   0.769   1.222   0.732
 1469W        W 8871   2.709   0.744   0.756
 1470W        W 8872  10.505   9.326   2.186
 1471W        W 8873   1.747   7.881   8.829
 1472W        W 8874  16.832   5.970   1.208
 1473W        W 8875   5.656   7.868   2.179
 1474W        W 8876  19.283   0.255   9.794
 1475W        W 8877   3.673   5.500   9.297
 1476W        W 8878  16.837   8.814   1.714
 1477W        W 8879  12.931   7.864   1.200
 1478W        W 8880  15.393   7.882   9.330
 1479W        W 8881   5.153   9.773   9.806
 1480W        W 8882   7.569   7.388   0.276
 1481W        W 8883  14.393   2.151   1.674
 1482W        W 8884  17.325   8.355   9.321
 1483W        W 8885   7.570   2.644   8.373
 1484W        W 8886  19.778   6.923   0.239
 1485W        W 8887   0.770   6.466   8.854
 1486W        W 8888   1.754   1.233   8.831
 1487W        W 8889   7.077   0.720   7.890
 1488W        W 8890  19.276   6.472   1.237
 1489W        W 8891  14.417   9.308   1.224
 1490W        W 8892  17.841   3.121   1.687
 1491W        W 8893  12.954   8.381   0.753
 1492W        W 8894  18.808   4.050   0.245
 1493W        W 8895  15.386   8.373   1.699
 1494W        W 8896  16.831   9.775   9.318
 1495W        W 8897  14.895   6.462   8.826
 1496W        W 8898  11.499   5.045   1.704
 1497W        W 8899  19.795   2.648   8.348
 1498W        W 8900   4.154   3.103   9.314
 1499W        W 8901  16.363   8.345   2.181
 1500W        W 8902  16.355   3.123   8.821
 1501W        W 8903   4.177   2.660   8.348
 1502W        W 8904   1.715   2.165   9.302
 1503W        W 8905  10.029   5.506   0.264
 1504W        W 8906  16.859   7.425   0.753
 1505W        W 8907   2.723   3.142   1.201
 1506W        W 8908   3.185   9.330   9.782
 1507W        W 8909   8.576   7.404   9.330
 1508W        W 8910   0.252   9.765   7.885
 1509W        W 8911   4.668   0.735   7.886
 1510W        W 8912   9.559   1.207   8.831
 1511W        W 8913  16.837   9.299   2.174
 1512W        W 8914   6.133   0.729   1.206
 1513W        W 8915  17.827   2.630   1.219
 1514W        W 8916  19.777   6.442   0.729
 1515W        W 8917  12.487   4.052   0.240
 1516W        W 8918   9.519   4.562   0.744
 1517W        W 8919   2.696   9.317   8.821
 1518W        W 8920   9.557   8.832   9.779
 1519W        W 8921  11.021   7.384   9.805
 1520W        W 8922   5.648   1.678   8.343
 1521W        W 8923  15.406   5.002   1.223
 1522W        W 8924   7.593   3.580   9.774
 1523W        W 8925   5.158   7.382   0.738
 1524W        W 8926  19.791   1.704   7.897
 1525W        W 8927  11.963   2.158   9.774
 1526W        W 8928   3.703   1.677   1.234
 1527W        W 8929  14.403   6.466   7.888
 1528W        W 8930  16.852   0.727   8.844
 1529W        W 8931   9.050   5.991   1.677
 1530W        W 8932   7.591   0.255   0.241
 1531W        W 8933   8.575   3.604   9.325
 1532W        W 8934  18.817   3.134   0.717
 1533W        W 8935   3.201   6.906   9.320
 1534W        W 8936  11.496   1.196   7.890
 1535W        W 8937   4.189   0.752   8.347
 1536W        W 8938   7.593   3.136   9.332
 1537W        W 8939  13.903   0.265   1.696
 1538W        W 8940   4.188   8.846   8.350
 1539W        W 8941  16.847   5.504   1.673
 1540W        W 8942  17.342   0.719   9.804
 1541W        W 8943   7.582   2.650   0.728
 1542W        W 8944   3.218   4.558   2.175
 1543W        W 8945  17.815   6.440   9.805
 1544W        W 8946   9.049   5.011   0.247
 1545W        W 8947   0.750   2.169   7.397
 1546W        W 8948  10.978   8.352   9.776
 1547W        W 8949  16.373   4.074   9.300
 1548W        W 8950  10.504   7.409   9.294
 1549W        W 8951  14.905   7.402   1.697
 1550W        W 8952   7.564   5.516   2.642
 1551W        W 8953   5.131   1.210   8.850
 1552W        W 8954   8.560   3.124   1.670
 1553W        W 8955   7.565   5.004   7.873
 1554W        W 8956   4.640   1.193   0.253
 1555W        W 8957  16.857   4.061   9.768
 1556W        W 8958   3.684   1.213   7.904
 1557W        W 8959  14.405   5.976   2.156
 1558W        W 8960  13.903   5.962   1.203
 1559W        W 8961   0.763   2.161   8.380
 1560W        W 8962   5.131   6.453   0.717
 1561W        W 8963  19.306   2.172   9.291
 1562W        W 8964   8.070   1.194   7.864
 1563W        W 8965  16.358   5.001   0.757
 1564W        W 8966  15.857   3.612   8.370
 1565W        W 8967   1.252   8.365   9.795
 1566W        W 8968  18.324   4.059   9.788
 1567W        W 8969  19.308   3.618   0.283
 1568W        W 8970   8.549   7.878   0.255
 1569W        W 8971   0.759   1.694   8.376
 1570W        W 8972  19.288   2.157   7.886
 1571W        W 8973   6.619   3.111   0.732
 1572W        W 8974  15.894   9.323   2.165
 1573W        W 8975  17.834   5.503   2.145
 1574W        W 8976  12.964   1.672   8.822
 1575W        W 8977   9.551   9.779   0.267
 1576W        W 8978  19.301   3.139   8.351
 1577W        W 8979  17.322   5.013   1.202
 1578W        W 8980   0.273   5.010   0.249
 1579W        W 8981  19.797   9.323   1.194
 1580W        W 8982   1.229   0.256   8.381
 1581W        W 8983   0.764   5.967   1.230
 1582W        W 8984   5.628   1.669   9.287
 1583W        W 8985   7.581   0.273   1.218
 1584W        W 8986   1.255   8.813   1.712
 1585W        W 8987  15.372   2.661   7.882
 1586W        W 8988  16.385   7.426   9.319
 1587W        W 8989  10.032   5.030   2.158
 1588W        W 8990  11.965   5.502   0.255
 1589W        W 8991  12.446   0.249   9.316
 1590W        W 8992  18.338   4.537   9.331
 1591W        W 8993   1.737   6.941   0.741
 1592W        W 8994  10.981   9.777   1.215
 1593W        W 8995   1.727   1.219   0.748
 1594W        W 8996   9.557   1.683   1.680
 1595W        W 8997  18.798   2.642   0.750
 1596W        W 8998  10.015   4.544   9.806
 1597W        W 8999  16.352   6.945   9.784
 1598W        W 9000  11.482   5.998   7.407
 1599W        W 9001  17.326   7.392   0.744
 1600W        W 9002   3.210   1.212   0.245
 1601W        W 9003  12.460   5.047   8.360
 1602W        W 9004   4.164   1.232   0.279
 1603W        W 9005   0.744   3.613   7.871
 1604W        W 9006  11.019   9.304   2.153
 1605W        W 9007   6.607   1.201   0.740
 1606W        W 9008  10.526   8.812   2.149
 1607W        W 9009   0.773   1.199   9.777
 1608W        W 9010  16.874   7.885   7.420
 1609W        W 9011   4.173   3.611   0.284
 1610W        W 9012  15.876   8.845   9.303
 1611W        W 9013  16.359   3.129   1.712
 1612W        W 9014   1.740   8.366   0.277
 1613W        W 9015  14.432   3.128   2.151
 1614W        W 9016  14.924   6.463   0.264
 1615W        W 9017   1.728   4.051   2.185
 1616W        W 9018  12.937   5.509   1.704
 1617W        W 9019   6.098   9.788   9.771
 1618W        W 9020  10.028   3.143   1.232
 1619W        W 9021   4.151   5.036   2.190
 1620W        W 9022   7.572   8.380   1.210
 1621W        W 9023  17.809   8.356   2.151
 1622W        W 9024   1.750   7.898   1.207
 1623W        W 9025  18.790   7.876   8.341
 1624W        W 9026  10.519   6.457   9.308
 1625W        W 9027  14.891   5.029   8.841
 1626W        W 9028   7.114   3.119   0.266
 1627W        W 9029   3.697   8.856   7.859
 1628W        W 9030  13.938   4.083   0.726
 1629W        W 9031  19.766   4.533   8.855
 1630W        W 9032  15.381   5.491   0.740
 1631W        W 9033  12.455   4.093   8.375
 1632W        W 9034  12.941   5.499   9.291
 1633W        W 9035  11.492   5.477   8.336
 1634W        W 9036  10.490   8.363   0.240
 1635W        W 9037  11.021   1.229   8.334
 1636W        W 9038   2.227   6.944   1.196
 1637W        W 9039  18.316   1.677   7.888
 1638W        W 9040  14.398   2.641   0.269
 1639W        W 9041  13.931   0.239   2.190
 1640W        W 9042   7.078   3.131   1.701
 1641W        W 9043   4.160   1.191   0.723
 1642W        W 9044   3.184   1.701   1.683
 1643W        W 9045   5.152   9.784   0.758
 1644W        W 9046   8.069   3.140   7.882
 1645W        W 9047  10.504   6.453   0.268
 1646W        W 9048   6.130   5.003   9.775
 1647W        W 9049   4.159   7.388   1.200
 1648W        W 9050  17.348   4.526   2.149
 1649W        W 9051   5.123   6.452   0.277
 1650W        W 9052  11.464   4.526   9.297
 1651W        W 9053  11.467   2.659   9.329
 1652W        W 9054  19.289   8.854   7.385
 1653W        W 9055   3.178   2.647   8.856
 1654W        W 9056   4.665   6.444   9.799
 1655W        W 9057  17.332   5.004   9.294
 1656W        W 9058  13.948   7.861   8.361
 1657W        W 9059  11.506   4.048   9.790
 1658W        W 9060   0.746   7.900   8.341
 1659W        W 9061  17.817   7.417   2.177
 1660W        W 9062   2.231   6.468   1.229
 1661W        W 9063  16.376   5.489   8.831
 1662W        W 9064  17.853   8.853   8.365
 1663W        W 9065  17.338   1.667   7.385
 1664W        W 9066  17.841   6.913   1.237
 1665W        W 9067  10.003   8.834   1.226
 1666W        W 9068  19.778   3.604   0.254
 1667W        W 9069  15.396   0.723   1.685
 1668W        W 9070   8.550   4.062   0.751
 1669W        W 9071   7.107   5.515   9.788
 1670W        W 9072   5.124   0.257   9.287
 1671W        W 9073   8.538   7.388   0.279
 1672W        W 9074   9.041   4.568   2.153
 1673W        W 9075   7.119   6.928   1.218
 1674W        W 9076  10.493   5.481   9.775
 1675W        W 9077  15.386   4.531   8.813
 1676W        W 9078   3.694   5.990   2.143
 1677W        W 9079  10.035   8.836   9.790
 1678W        W 9080  13.440   6.936   9.771
 1679W        W 9081  11.497   0.263   8.848
 1680W        W 9082   4.191   4.531   0.267
 1681W        W 9083   0.271   4.061   9.303
 1682W        W 9084   3.681   0.282   0.722
 1683W        W 9085   2.211   3.105   1.224
 1684W        W 9086  18.299   9.288   1.224
 1685W        W 9087  14.908   8.843   1.205
 1686W        W 9088   9.043   5.972   8.850
 1687W        W 9089  17.330   2.189   2.154
 1688W        W 9090   8.071   3.610   9.316
 1689W        W 9091  17.816   1.712   9.287
 1690W        W 9092   6.133   1.193   7.859
 1691W        W 9093  19.315   2.637   7.863
 1692W        W 9094  11.958   9.307   7.388
 1693W        W 9095  16.838   4.553   1.226
 1694W        W 9096  13.449   7.389   2.155
 1695W        W 9097   1.733   8.340   7.881
 1696W        W 9098   4.661   6.457   8.854
 1697W        W 9099   6.623   0.724   9.327
 1698W        W 9100  10.011   8.342   1.707
 1699W        W 9101  12.443   6.442   7.872
 1700W        W 9102  12.938   4.537   7.903
 1701W        W 9103   2.219   7.870   0.251
 1702W        W 9104   4.162   0.743   9.790
 1703W        W 9105  13.437   8.841   9.300
 1704W        W 9106   0.774   5.039   9.806
 1705W        W 9107  12.946   8.357   1.698
 1706W        W 9108   4.638   1.198   8.844
 1707W        W 9109   3.693   7.878   2.167
 1708W        W 9110  17.350   2.186   8.823
 1709W        W 9111   4.660   2.636   9.331
 1710W        W 9112  17.836   1.682   1.685
 1711W        W 9113   6.136   2.637   1.710
 1712W        W 9114   1.265   7.412   7.863
 1713W        W 9115  10.996   4.068   9.333
 1714W        W 9116  19.275   0.276   0.280
 1715W        W 9117  12.972   6.949   0.758
 1716W        W 9118   7.099   8.358   0.263
 1717W        W 9119   6.629   6.920   0.755
 1718W        W 9120   2.233   5.506   9.779
 1719W        W 9121  14.424   1.210   0.744
 1720W        W 9122   4.150   7.395   7.876
 1721W        W 9123  13.435   9.295   9.299
 1722W        W 9124   7.117   1.669   2.181
 1723W        W 9125  13.904   7.422   9.778
 1724W        W 9126   0.770   3.579   0.267
 1725W        W 9127   1.268   9.768   7.896
 1726W        W 9128  16.347   5.998   0.737
 1727W        W 9129  12.484   3.572   8.827
 1728W        W 9130   8.065   4.075   8.847
 1729W        W 9131  19.300   0.757   1.206
 1730W        W 9132  13.905   8.850   7.391
 1731W        W 9133   3.199   4.079   2.152
 1732W        W 9134  12.479   8.847   1.674
 1733W        W 9135  15.372   0.241   0.717
 1734W        W 9136   8.569   3.112   0.272
 1735W        W 9137  10.041   9.773   9.792
 1736W        W 9138  11.511   8.368   9.330
 1737W        W 9139   1.252   7.883   9.328
 1738W        W 9140  13.911   3.607   0.733
 1739W        W 9141  19.790   3.606   8.825
 1740W        W 9142   1.730   5.039   0.251
 1741W        W 9143  17.850   0.246   7.425
 1742W        W 9144   9.522   2.624   7.889
 1743W        W 9145   1.256   8.833   8.364
 1744W        W 9146  17.817   6.441   9.315
 1745W        W 9147   5.616   2.652   7.862
 1746W        W 9148   3.696   9.807   8.828
 1747W        W 9149   7.081   5.491   1.711
 1748W        W 9150   1.250   9.795   9.790
 1749W        W 9151  17.363   1.707   9.309
 1750W        W 9152   0.254   7.393   9.776
 1751W        W 9153  15.900   8.351   8.380
 1752W        W 9154   9.531   3.615   9.792
 1753W        W 9155   8.072   0.252   9.787
 1754W        W 9156  10.504   2.648   1.671
 1755W        W 9157   8.097   5.001   7.897
 1756W        W 9158  19.269   4.559   8.369
 1757W        W 9159  10.022   0.759   0.746
 1758W        W 9160   4.162   3.140   1.216
 1759W        W 9161  14.405   7.875   7.895
 1760W        W 9162   7.600   2.619   7.896
 1761W        W 9163   7.089   6.454   9.763
 1762W        W 9164  19.279   8.823   0.247
 1763W        W 9165  15.385   2.184   0.275
 1764W        W 9166  18.329   5.044   1.692
 1765W        W 9167  17.826   1.691   7.899
 1766W        W 9168  10.978   3.133   9.297
 1767W        W 9169  19.760   6.473   2.155
 1768W        W 9170  17.350   7.884   0.274
 1769W        W 9171   6.098   3.115   8.378
 1770W        W 9172   5.658   8.349   9.310
 1771W        W 9173  10.988   0.727   9.288
 1772W        W 9174   4.652   1.693   8.360
 1773W        W 9175  10.048   1.691   1.224
 1774W        W 9176  11.995   3.114   1.678
 1775W        W 9177   6.118   1.683   0.762
 1776W        W 9178  15.893   0.281   2.164
 1777W        W 9179   9.526   1.224   2.166
 1778W        W 9180  10.519   5.026   8.348
 1779W        W 9181  14.406   3.131   1.223
 1780W        W 9182   7.120   2.155   2.159
 1781W        W 9183   3.193   4.554   8.848
 1782W        W 9184  16.355   0.744   2.644
 1783W        W 9185  10.523   7.886   0.283
 1784W        W 9186  10.510   9.786   1.682
 1785W        W 9187  12.453   9.286   8.378
 1786W        W 9188   0.777   6.436   9.783
 1787W        W 9189  12.950   6.431   8.852
 1788W        W 9190  15.893   4.061   2.166
 1789W        W 9191  14.904   5.955   9.787
 1790W        W 9192  19.777   5.030   8.337
 1791W        W 9193   4.635   1.219   1.691
 1792W        W 9194   0.290   2.641   1.204
 1793W        W 9195   7.091   7.397   0.239
 1794W        W 9196  18.326   4.055   8.366
 1795W        W 9197   3.700   0.720   1.697
 1796W        W 9198   2.233   6.455   9.314
 1797W        W 9199   2.199   2.182   1.693
 1798W        W 9200  19.790   9.803   0.722
 1799W        W 9201   0.264   5.486   0.284
 1800W        W 9202  18.332   8.850   9.314
 1801W        W 9203   1.741   4.550   1.714
 1802W        W 9204  10.526   1.671   9.291
 1803W        W 9205   3.213   8.364   1.694
 1804W        W 9206  10.045   0.742   9.762
 1805W        W 9207  11.967   9.309   0.733
 1806W        W 9208  16.345   0.252   2.179
 1807W        W 9209  17.364   7.903   8.363
 1808W        W 9210   8.548   5.035   9.296
 1809W        W 9211  11.465   5.047   7.901
 1810W        W 9212  14.424   8.337   8.851
 1811W        W 9213  12.479   8.847   8.813
 1812W        W 9214   2.706   2.169   1.691
 1813W        W 9215   9.552   4.547   1.669
 1814W        W 9216   1.720   6.948   1.216
 1815W        W 9217   6.144   9.320   8.811
 1816W        W 9218   8.564   5.516   7.875
 1817W        W 9219   6.628   9.307   1.684
 1818W        W 9220   6.621   9.782   9.791
 1819W        W 9221  16.874   0.758   1.679
 1820W        W 9222   6.144   1.674   7.892
 1821W        W 9223  10.022   4.072   9.780
 1822W        W 9224   0.269   9.332   8.354
 1823W        W 9225   8.546   6.905   9.295
 1824W        W 9226   0.778   3.605   9.301
 1825W        W 9227  14.915   1.670   8.843
 1826W        W 9228   3.203   2.145   9.800
 1827W        W 9229  12.476   1.223   2.186
 1828W        W 9230  13.934   8.346   8.855
 1829W        W 9231   2.701   2.169   0.754
 1830W        W 9232   6.146   2.149   1.698
 1831W        W 9233  11.484   8.846   7.902
 1832W        W 9234  16.858   7.875   0.249
 1833W        W 9235   1.263   0.273   1.205
 1834W        W 9236  14.402   4.568   0.737
 1835W        W 9237  17.334   8.350   0.731
 1836W        W 9238   3.174   9.320   0.255
 1837W        W 9239  13.948   7.386   8.372
 1838W        W 9240  13.415   2.622   8.374
 1839W        W 9241  14.432   0.729   1.699
 1840W        W 9242  19.795   4.067   8.345
 1841W        W 9243   8.064   6.449   8.826
 1842W        W 9244  10.045   3.136   1.681
 1843W        W 9245   3.659   4.555   9.322
 1844W        W 9246   0.753   3.121   8.810
 1845W        W 9247   0.261   9.773   9.788
 1846W        W 9248  10.019   3.110   2.164
 1847W        W 9249  15.898   7.901   0.241
 1848W        W 9250  13.920   1.233   8.854
 1849W        W 9251  10.501   5.501   0.720
 1850W        W 9252  10.018   9.779   0.728
 1851W        W 9253  17.346   8.850   9.328
 1852W        W 9254  12.932   9.809   1.204
 1853W        W 9255  13.438   5.958   2.165
 1854W        W 9256   1.756   6.454   8.849
 1855W        W 9257   3.184   5.960   0.720
 1856W        W 9258   6.631   5.515   0.248
 1857W        W 9259   2.718   5.959   9.795
 1858W        W 9260   0.759   7.895   7.413
 1859W        W 9261   9.031   0.283   1.192
 1860W        W 9262  10.531   3.601   1.698
 1861W        W 9263   7.564   3.615   9.289
 1862W        W 9264   5.165   6.465   7.862
 1863W        W 9265  19.302   1.698   1.675
 1864W        W 9266  19.309   3.134   1.210
 1865W        W 9267  16.865   2.148   8.844
 1866W        W 9268   1.736   5.477   9.792
 1867W        W 9269  11.019   1.711   1.681
 1868W        W 9270  14.434   2.647   0.732
 1869W        W 9271  13.446   9.302   8.818
 1870W        W 9272  14.908   5.497   9.297
 1871W        W 9273  11.993   8.371   9.793
 1872W        W 9274   7.085   7.879   2.159
 1873W        W 9275   2.714   6.917   0.738
 1874W        W 9276  17.831   4.061   9.288
 1875W        W 9277  13.432   5.011   0.253
 1876W        W 9278   1.242   2.630   1.229
 1877W        W 9279  10.034   5.991   7.902
 1878W        W 9280  11.981   2.169   0.266
 1879W        W 9281   1.739   7.419   0.277
 1880W        W 9282   8.555   2.173   0.715
 1881W        W 9283   4.646   9.791   0.730
 1882W        W 9284  13.447   7.878   8.814
 1883W        W 9285   5.639   1.669   0.750
 1884W        W 9286   4.675   4.569   1.207
 1885W        W 9287   4.639   9.806   1.223
 1886W        W 9288   0.281   3.593   8.842
 1887W        W 9289   0.265   6.910   1.237
 1888W        W 9290  11.006   2.661   8.367
 1889W        W 9291  18.791   1.208   0.246
 1890W        W 9292   9.073   0.756   8.823
 1891W        W 9293  12.948   6.933   9.770
 1892W        W 9294  10.980   9.792   1.701
 1893W        W 9295  10.985   2.657   1.697
 1894W        W 9296   0.252   0.724   2.168
 1895W        W 9297   2.234   4.562   0.742
 1896W        W 9298   4.159   5.032   9.316
 1897W        W 9299  13.435   6.918   1.218
 1898W        W 9300  12.931   7.871   2.181
 1899W        W 9301   0.769   8.374   0.762
 1900W        W 9302  13.912   6.442   7.891
 1901W        W 9303   6.141   3.613   2.170
 1902W        W 9304  13.948   9.294   1.212
 1903W        W 9305  11.001   7.903   0.267
 1904W        W 9306  10.516   7.382   7.901
 1905W        W 9307   3.183   1.678   0.251
 1906W        W 9308  10.495   1.224   1.204
 1907W        W 9309  15.380   6.457   0.751
 1908W        W 9310   7.110   6.442   7.887
 1909W        W 9311   8.089   8.832   0.267
 1910W        W 9312   5.625   1.686   2.184
 1911W        W 9313   9.071   3.602   9.298
 1912W        W 9314   1.239   5.491   8.367
 1913W        W 9315  13.432   5.965   8.833
 1914W        W 9316  11.999   8.851   2.169
 1915W        W 9317   4.156   6.908   0.744
 1916W        W 9318   5.153   8.831   8.829
 1917W        W 9319   8.095   3.600   9.806
 1918W        W 9320  15.381   1.682   0.266
 1919W        W 9321  12.954   9.299   2.185
 1920W        W 9322   7.578   8.344   8.839
 1921W        W 9323  11.471   5.002   9.331
 1922W        W 9324   4.156   8.358   0.759
 1923W        W 9325   8.554   5.037   7.872
 1924W        W 9326  10.505   6.444   1.692
 1925W        W 9327  11.509   5.489   7.879
 1926W        W 9328  10.508   9.293   0.716
 1927W        W 9329   8.544   8.825   9.311
 1928W        W 9330  15.385   6.914   1.214
 1929W        W 9331  13.925   0.258   1.223
 1930W        W 9332   7.088   6.476   8.340
 1931W        W 9333   4.654   5.505   9.792
 1932W        W 9334  17.330   6.930   8.356
 1933W        W 9335   7.078   5.039   2.653
 1934W        W 9336   2.693   2.145   7.890
 1935W        W 9337   6.138   5.484   0.266
 1936W        W 9338  12.935   6.437   7.904
 1937W        W 9339  10.502   4.071   7.899
 1938W        W 9340   0.757   6.929   0.282
 1939W        W 9341  18.309   5.494   8.822
 1940W        W 9342  18.327   9.295   9.324
 1941W        W 9343   3.190   7.863   8.846
 1942W        W 9344   9.558   5.978   1.681
 1943W        W 9345  15.878   7.422   1.236
 1944W        W 9346   8.557   1.671   1.670
 1945W        W 9347   0.279   9.804   2.176
 1946W        W 9348  16.829   6.946   1.196
 1947W        W 9349   9.058   2.655   7.863
 1948W        W 9350   8.542   8.846   2.153
 1949W        W 9351   4.646   1.199   1.193
 1950W        W 9352  19.315   2.630   1.697
 1951W        W 9353  11.969   5.493   2.153
 1952W        W 9354   4.651   8.380   9.762
 1953W        W 9355  12.452   4.569   1.202
 1954W        W 9356   3.673   4.525   2.182
 1955W        W 9357  12.455   5.979   2.163
 1956W        W 9358  18.797   7.901   0.285
 1957W        W 9359  13.441   5.019   8.366
 1958W        W 9360   5.624   5.508   0.242
 1959W        W 9361  18.323   0.739   8.845
 1960W        W 9362  15.895   1.238   8.341
 1961W        W 9363  14.909   4.555   1.674
 1962W        W 9364  15.867   0.751   0.730
 1963W        W 9365  18.801   8.370   1.215
 1964W        W 9366  11.480   2.166   0.284
 1965W        W 9367   0.278   6.468   0.240
 1966W        W 9368   6.618   9.796   8.841
 1967W        W 9369   2.211   2.642   2.173
 1968W        W 9370   2.231   7.884   2.158
 1969W        W 9371  19.286   1.708   0.751
 1970W        W 9372  10.039   5.040   1.234
 1971W        W 9373  16.383   1.204   0.737
 1972W        W 9374  18.817   7.875   2.172
 1973W        W 9375   9.543   8.856   8.378
 1974W        W 9376  10.504   6.922   1.702
 1975W        W 9377  16.832   8.813   9.329
 1976W        W 9378   0.766   7.883   2.181
 1977W        W 9379   1.221   5.041   1.208
 1978W        W 9380  14.400   6.910   9.303
 1979W        W 9381   4.194   5.516   8.848
 1980W        W 9382   2.218   0.260   0.745
 1981W        W 9383  11.016   2.172   0.253
 1982W        W 9384   5.129   6.933   9.775
 1983W        W 9385  14.392   2.167   8.341
 1984W        W 9386  11.010   8.351   0.260
 1985W        W 9387   9.536   3.121   1.691
 1986W        W 9388  10.004   0.245   2.651
 1987W        W 9389   9.541   8.355   9.798
 1988W        W 9390  15.856   9.778   0.749
 1989W        W 9391  18.311   2.150   0.733
 1990W        W 9392  10.499   5.518   8.811
 1991W        W 9393   4.156   3.139   7.861
 1992W        W 9394  17.331   3.125   1.667
 1993W        W 9395  12.946   1.672   9.808
 1994W        W 9396  15.366   8.371   2.629
 1995W        W 9397   0.776   9.791   1.217
 1996W        W 9398  13.460   1.701   2.166
 1997W        W 9399   9.061   0.242   1.698
 1998W        W 9400  12.970   9.329   0.274
 1999W        W 9401  15.371   5.003   2.147
 2000W        W 9402  16.361   7.885   8.335
 2001W        W 9403  19.293   1.678   0.260
 2002W        W 9404   8.542   6.457   2.638
 2003W        W 9405   6.111   4.526   9.806
 2004W        W 9406   0.276   8.345   9.771
 2005W        W 9407   9.545   5.487   9.327
 2006W        W 9408  10.034   2.647   0.753
 2007W        W 9409  16.872   8.831   9.764
 2008W        W 9410   8.092   5.977   0.279
 2009W        W 9411  18.295   0.278   2.178
 2010W        W 9412  18.782   5.522   9.328
 2011W        W 9413   1.732   1.707   0.758
 2012W        W 9414   3.699   0.260   0.243
 2013W        W 9415   6.625   4.541   0.723
 2014W        W 9416  15.890   5.963   9.329
 2015W        W 9417  19.312   5.995   0.272
 2016W        W 9418  11.012   0.750   2.186
 2017W        W 9419   4.662   1.690   2.158
 2018W        W 9420  14.430   6.909   7.888
 2019W        W 9421   3.191   0.259   2.171
 2020W        W 9422   4.679   4.086   1.225
 2021W        W 9423  16.844   1.201   8.336
 2022W        W 9424   2.724   2.180   8.829
 2023W        W 9425  12.475   7.393   8.847
 2024W        W 9426   4.640   4.549   1.699
 2025W        W 9427   0.285   0.723   0.258
 2026W        W 9428  16.368   9.762   0.268
 2027W        W 9429  13.941   1.708   7.891
 2028W        W 9430   2.731   0.269   9.332
 2029W        W 9431  12.470   6.948   9.792
 2030W        W 9432   6.135   4.551   0.731
 2031W        W 9433  10.503   8.830   7.884
 2032W        W 9434  13.905   9.798   1.684
 2033W        W 9435   5.634   0.746   2.159
 2034W        W 9436  12.462   5.001   1.668
 2035W        W 9437   3.187   2.189   1.695
 2036W        W 9438  13.916   6.444   8.827
 2037W        W 9439  15.388   8.339   9.785
 2038W        W 9440   0.777   1.201   8.816
 2039W        W 9441   0.291   1.196   7.897
 2040W        W 9442   2.725   7.385   1.191
 2041W        W 9443  12.962   3.113   2.190
 2042W        W 9444   4.158   2.162   0.742
 2043W        W 9445  15.381   1.700   1.223
 2044W        W 9446  13.426   6.468   8.826
 2045W        W 9447  16.384   5.021   7.891
 2046W        W 9448  19.763   9.771   1.668
 2047W        W 9449  18.784   6.948   2.173
 2048W        W 9450   7.088   1.221   1.228
 2049W        W 9451  12.932   4.077   8.813
 2050W        W 9452  19.303   0.724   2.654
 2051W        W 9453  17.828   9.311   1.201
 2052W        W 9454   2.701   7.872   0.264
 2053W        W 9455   3.681   8.357   0.742
 2054W        W 9456  17.323   5.986   7.871
 2055W        W 9457  15.379   9.798   2.173
 2056W        W 9458   5.641   6.474   8.845
 2057W        W 9459   5.642   7.881   9.765
 2058W        W 9460   7.606   7.904   0.755
 2059W        W 9461  14.419   0.279   1.202
 2060W        W 9462  13.942   0.279   7.870
 2061W        W 9463   2.701   9.294   1.209
 2062W        W 9464   2.214   2.633   7.887
 2063W        W 9465   8.580   1.674   9.332
 2064W        W 9466  14.415   4.542   2.171
 2065W        W 9467  12.959   2.635   0.741
 2066W        W 9468   3.216   8.377   0.269
 2067W        W 9469   5.658   2.634   1.191
 2068W        W 9470   1.720   0.281   7.905
 2069W        W 9471  16.855   1.672   2.622
 2070W        W 9472  16.840   6.470   9.784
 2071W        W 9473   6.110   0.261   7.861
 2072W        W 9474  14.904   7.382   8.371
 2073W        W 9475   7.575   4.088   7.888
 2074W        W 9476  14.917   1.204   8.337
 2075W        W 9477  14.891   7.903   1.708
 2076W        W 9478   1.714   1.219   9.765
 2077W        W 9479  18.329   7.880   7.871
 2078W        W 9480  17.840   3.617   1.192
 2079W        W 9481   0.264   4.067   1.669
 2080W        W 9482   4.671   2.157   1.216
 2081W        W 9483   5.612   6.471   1.686
 2082W        W 9484  19.764   6.443   8.373
 2083W        W 9485  14.438   0.250   8.361
 2084W        W 9486  12.949   7.872   0.262
 2085W        W 9487  10.520   5.511   0.263
 2086W        W 9488  14.419   7.407   8.830
 2087W        W 9489  13.443   5.521   9.328
 2088W        W 9490  14.439   0.249   8.825
 2089W        W 9491  11.990   4.082   7.903
 2090W        W 9492  14.901   6.920   0.243
 2091W        W 9493  14.919   6.940   1.192
 2092W        W 9494   7.089   7.885   0.754
 2093W        W 9495  19.278   8.369   0.753
 2094W        W 9496  15.893   9.318   7.885
 2095W        W 9497   1.716   5.026   1.684
 2096W        W 9498  19.795   4.074   1.669
 2097W        W 9499  10.494   5.036   8.818
 2098W        W 9500   8.075   5.510   0.748
 2099W        W 9501  18.811   2.622   1.705
 2100W        W 9502   3.192   4.570   7.897
 2101W        W 9503   4.675   2.656   7.884
 2102W        W 9504   4.168   5.981   8.376
 2103W        W 9505   1.711   0.285   0.281
 2104W        W 9506  16.840   6.916   2.178
 2105W        W 9507  11.012   1.226   1.680
 2106W        W 9508   6.138   9.802   9.315
 2107W        W 9509  16.841   1.674   1.679
 2108W        W 9510   1.251   5.480   0.280
 2109W        W 9511   3.660   6.455   1.703
 2110W        W 9512  15.875   2.145   2.148
 2111W        W 9513  17.811   7.899   9.785
 2112W        W 9514   3.674   5.990   9.304
 2113W        W 9515   2.229   5.522   0.239
 2114W        W 9516   9.070   7.893   8.366
 2115W        W 9517  13.924   6.432   2.624
 2116W        W 9518  10.030   5.033   0.270
 2117W        W 9519  10.985   4.550   7.860
 2118W        W 9520   6.106   6.446   9.290
 2119W        W 9521  18.787   2.627   8.845
 2120W        W 9522   3.184   3.614   2.157
 2121W        W 9523  19.763   5.523   8.850
 2122W        W 9524  17.807   5.973   9.809
 2123W        W 9525  14.923   5.981   9.326
 2124W        W 9526  17.835   2.158   9.799
 2125W        W 9527   4.165   8.380   1.677
 2126W        W 9528  14.400   1.700   7.888
 2127W        W 9529  19.303   7.407   2.164
 2128W        W 9530  16.343   8.334   0.742
 2129W        W 9531  10.503   7.858   1.213
 2130W        W 9532  12.443   8.355   1.694
 2131W        W 9533   3.659   0.751   2.190
 2132W        W 9534  16.362   2.653   7.860
 2133W        W 9535   6.619   3.098   7.875
 2134W        W 9536  11.468   3.606   8.814
 2135W        W 9537   7.110   5.020   8.811
 2136W        W 9538  18.795   6.434   7.857
 2137W        W 9539   0.278   7.871   7.890
 2138W        W 9540  12.488   7.901   1.204
 2139W        W 9541  18.331   1.196   9.299
 2140W        W 9542  11.987   4.084   2.164
 2141W        W 9543  14.887   7.895   1.193
 2142W        W 9544  17.361   7.418   8.829
 2143W        W 9545   2.199   5.979   9.801
 2144W        W 9546   7.108   3.590   9.331
 2145W        W 9547  10.530   4.077   0.720
 2146W        W 9548   7.609   8.843   0.282
 2147W        W 9549  18.302   6.437   0.749
 2148W        W 9550  12.951   6.465   2.174
 2149W        W 9551   6.110   3.102   1.237
 2150W        W 9552  15.381   6.438   9.328
 2151W        W 9553   0.774   5.978   9.792
 2152W        W 9554  14.917   4.562   9.776
 2153W        W 9555   6.110   8.362   8.839
 2154W        W 9556  16.386   4.568   1.202
 2155W        W 9557   1.263   8.829   9.326
 2156W        W 9558   7.565   3.576   8.836
 2157W        W 9559  17.836   6.914   8.366
 2158W        W 9560  13.946   1.681   1.688
 2159W        W 9561   4.148   7.396   8.845
 2160W        W 9562   4.641   8.375   1.691
 2161W        W 9563   6.613   2.168   1.691
 2162W        W 9564  16.874   8.366   0.751
 2163W        W 9565   7.578   6.926   8.825
 2164W        W 9566  13.912   5.038   9.807
 2165W        W 9567   9.543   0.757   7.868
 2166W        W 9568  18.306   9.806   9.306
 2167W        W 9569   4.193   6.467   1.701
 2168W        W 9570  17.808   4.545   1.224
 2169W        W 9571  12.947   4.571   9.289
 2170W        W 9572   6.099   0.280   1.191
 2171W        W 9573  13.907   4.541   1.209
 2172W        W 9574   1.268   7.900   7.862
 2173W        W 9575   3.217   5.026   8.360
 2174W        W 9576  11.963   7.394   0.718
 2175W        W 9577   5.156   4.544   1.226
 2176W        W 9578   7.114   1.204   8.821
 2177W        W 9579   6.128   7.425   0.758
 2178W        W 9580  11.990   1.701   1.208
 2179W        W 9581   7.602   0.747   1.211
 2180W        W 9582  18.320   6.451   0.263
 2181W        W 9583  16.831   5.004   1.711
 2182W        W 9584  15.882   0.715   1.688
 2183W        W 9585  11.473   1.667   7.905
 2184W        W 9586   2.726   2.647   0.253
 2185W        W 9587  15.868   3.112   9.783
 2186W        W 9588   1.227   2.179   0.735
 2187W        W 9589   0.274   1.673   1.669
 2188W        W 9590  11.007   1.210   9.315
 2189W        W 9591  14.414   1.235   8.360
 2190W        W 9592   1.728   3.124   2.153
 2191W        W 9593  11.468   7.902   8.830
 2192W        W 9594   1.264   6.917   1.230
 2193W        W 9595   8.572   9.772   1.217
 2194W        W 9596  11.956   4.529   7.899
 2195W        W 9597  12.938   7.402   7.892
 2196W        W 9598   0.285   1.224   1.677
 2197W        W 9599   1.713   8.832   8.822
 2198W        W 9600   8.553   9.791   9.312
 2199W        W 9601  15.870   6.449   8.810
 2200W        W 9602   4.656   7.409   2.149
 2201W        W 9603  15.874   8.815   8.361
 2202W        W 9604  14.889   0.277   2.176
 2203W        W 9605   9.032   5.955   1.213
 2204W        W 9606   5.644   0.284   9.807
 2205W        W 9607  16.373   2.149   0.260
 2206W        W 9608   2.215   1.205   0.743
 2207W        W 9609   0.258   9.310   1.207
 2208W        W 9610  19.802   0.719   1.225
 2209W        W 9611  18.789   5.041   9.295
 2210W        W 9612  10.046   5.997   1.231
 2211W        W 9613   9.553   4.062   1.216
 2212W        W 9614  14.909   8.840   2.181
 2213W        W 9615  13.430   3.104   1.220
 2214W        W 9616  19.772   0.760   8.828
 2215W        W 9617   4.635   1.217   8.358
 2216W        W 9618  14.418   3.614   9.768
 2217W        W 9619  11.472   0.731   9.781
 2218W        W 9620   5.612   3.115   1.231
 2219W        W 9621   5.127   5.513   7.861
 2220W        W 9622  15.396   4.056   8.369
 2221W        W 9623  12.472   3.105   0.267
 2222W        W 9624   2.224   8.364   7.905
 2223W        W 9625   6.596   0.274   9.288
 2224W        W 9626   6.614   5.020   1.212
 2225W        W 9627   6.601   6.433   8.338
 2226W        W 9628   7.086   6.916   7.866
 2227W        W 9629   7.096   3.593   9.808
 2228W        W 9630  11.023   2.169   2.181
 2229W        W 9631  18.312   2.175   0.278
 2230W        W 9632   8.079   9.788   7.883
 2231W        W 9633  14.894   3.608   0.733
 2232W        W 9634  17.343   2.620   1.670
 2233W        W 9635   7.082   8.334   9.301
 2234W        W 9636  14.416   1.683   8.339
 2235W        W 9637   0.289   5.496   7.899
 2236W        W 9638  14.400   0.735   8.847
 2237W        W 9639  11.497   7.862   1.203
 2238W        W 9640   5.642   0.724   7.878
 2239W        W 9641   7.586   1.226   9.799
 2240W        W 9642   4.668   4.089   2.150
 2241W        W 9643   9.526   3.618   1.712
 2242W        W 9644  15.882   3.598   7.899
 2243W        W 9645  17.325   4.083   1.668
 2244W        W 9646  18.339   6.934   8.356
 2245W        W 9647  15.872   8.855   2.155
 2246W        W 9648   2.226   5.499   1.695
 2247W        W 9649   3.696   2.149   9.809
 2248W        W 9650  15.393   9.785   1.679
 2249W        W 9651  11.008   2.642   0.253
 2250W        W 9652   5.621   8.378   0.261
 2251W        W 9653  14.418   3.120   0.738
 2252W        W 9654   0.747   3.113   8.369
 2253W        W 9655   6.109   5.486   1.670
 2254W        W 9656   4.179   9.803   0.272
 2255W        W 9657  19.282   3.573   9.316
 2256W        W 9658   8.070   7.858   7.405
 2257W        W 9659  10.046   1.681   2.649
 2258W        W 9660   9.061   2.163   9.806
 2259W        W 9661   0.247   5.981   9.333
 2260W        W 9662  15.867   8.356   1.673
 2261W        W 9663   5.621   9.330   7.867
 2262W        W 9664  16.875   0.266   1.683
 2263W        W 9665  10.988   7.420   8.815
 2264W        W 9666  19.756   2.153   9.325
 2265W        W 9667   4.652   9.332   8.845
 2266W        W 9668   4.679   5.954   8.345
 2267W        W 9669  10.989   3.134   1.700
 2268W        W 9670  16.390   2.181   2.156
 2269W        W 9671  17.850   8.839   1.222
 2270W        W 9672  19.293   9.802   7.897
 2271W        W 9673   8.559   7.899   2.161
 2272W        W 9674  12.950   3.589   7.868
 2273W        W 9675  13.430   4.570   7.871
 2274W        W 9676   8.573   8.363   0.737
 2275W        W 9677  13.951   4.081   2.170
 2276W        W 9678   8.075   4.053   0.281
 2277W        W 9679  13.429   3.580   0.259
 2278W        W 9680  17.834   5.017   0.726
 2279W        W 9681  16.869   6.472   9.286
 2280W        W 9682  12.959   1.680   9.321
 2281W        W 9683  12.953   9.805   8.826
 2282W        W 9684  15.886   6.940   8.821
 2283W        W 9685  15.398   3.143   2.173
 2284W        W 9686  19.785   2.641   2.170
 2285W        W 9687  17.819   7.860   0.269
 2286W        W 9688   4.663   2.168   2.169
 2287W        W 9689  16.360   3.101   7.408
 2288W        W 9690  14.405   0.718   9.769
 2289W        W 9691  12.455   1.213   9.768
 2290W        W 9692   4.673   4.053   0.280
 2291W        W 9693  17.847   3.604   0.745
 2292W        W 9694   6.116   2.657   8.855
 2293W        W 9695  11.512   9.805   8.371
 2294W        W 9696  13.905   2.649   9.769
 2295W        W 9697   3.214   6.926   9.782
 2296W        W 9698   0.773   7.868   1.705
 2297W        W 9699   6.145   3.583   9.286
 2298W        W 9700   7.574   0.746   2.162
 2299W        W 9701  12.971   8.360   0.273
 2300W        W 9702  14.432   7.886   2.167
 2301W        W 9703  15.867   9.331   8.346
 2302W        W 9704   4.171   3.134   9.766
 2303W        W 9705  12.460   1.205   1.206
 2304W        W 9706   0.250   7.417   0.725
 2305W        W 9707  19.310   5.494   2.639
 2306W        W 9708  12.952   6.930   2.154
 2307W        W 9709   5.147   2.644   0.741
 2308W        W 9710  17.347   6.446   0.721
 2309W        W 9711   5.131   5.493   1.684
 2310W        W 9712  15.388   6.950   8.844
 2311W        W 9713   0.265   1.709   7.870
 2312W        W 9714   8.556   8.853   0.737
 2313W        W 9715  14.420   3.118   1.671
 2314W        W 9716   0.269   6.943   8.378
 2315W        W 9717   8.063   5.506   1.204
 2316W        W 9718   2.209   1.672   0.719
 2317W        W 9719   4.163   2.184   9.776
 2318W        W 9720  16.854   4.065   0.753
 2319W        W 9721  13.904   4.553   7.864
 2320W        W 9722  10.998   5.485   9.309
 2321W        W 9723   6.145   3.104   7.903
 2322W        W 9724   6.625   9.294   0.252
 2323W        W 9725   5.638   8.828   9.287
 2324W        W 9726   1.741   3.603   8.376
 2325W        W 9727  14.924   0.762   9.315
 2326W        W 9728   1.742   2.638   8.823
 2327W        W 9729   6.625   4.530   8.838
 2328W        W 9730  14.909   8.355   1.232
 2329W        W 9731   9.526   2.150   8.835
 2330W        W 9732  12.944   2.660   2.648
 2331W        W 9733  18.829   6.942   0.252
 2332W        W 9734   9.537   5.519   1.218
 2333W        W 9735  15.404   4.084   9.777
 2334W        W 9736   7.078   9.788   7.901
 2335W        W 9737   5.614   9.295   7.392
 2336W        W 9738  12.927   2.621   1.668
 2337W        W 9739  11.981   7.405   9.764
 2338W        W 9740  13.910   9.792   8.815
 2339W        W 9741  11.983   5.011   8.842
 2340W        W 9742   1.252   3.590   8.381
 2341W        W 9743   1.256   7.872   0.254
 2342W        W 9744  14.916   9.769   2.154
 2343W        W 9745  17.827   2.640   0.243
 2344W        W 9746   1.714   5.985   1.712
 2345W        W 9747   8.581   1.681   8.371
 2346W        W 9748   5.132   6.458   9.316
 2347W        W 9749   6.617   5.953   2.172
 2348W        W 9750   4.667   1.210   9.294
 2349W        W 9751   3.192   6.429   1.677
 2350W        W 9752   1.738   8.365   2.177
 2351W        W 9753   1.734   6.430   0.259
 2352W        W 9754   3.671   9.773   9.331
 2353W        W 9755  10.499   6.906   7.888
 2354W        W 9756   4.186   4.544   1.237
 2355W        W 9757  13.440   1.220   9.324
 2356W        W 9758   1.747   9.805   8.833
 2357W        W 9759  16.388   1.674   8.353
 2358W        W 9760  12.473   5.029   9.288
 2359W        W 9761  19.279   4.063   0.257
 2360W        W 9762   4.174   6.921   0.276
 2361W        W 9763  17.365   5.492   2.660
 2362W        W 9764  18.317   8.363   1.709
 2363W        W 9765  18.303   9.310   2.143
 2364W        W 9766  14.898   6.442   0.745
 2365W        W 9767  12.465   7.868   8.355
 2366W        W 9768   3.702   7.397   2.183
 2367W        W 9769   2.706   3.583   8.337
 2368W        W 9770   9.044   8.369   7.897
 2369W        W 9771   5.170   0.262   8.818
 2370W        W 9772  12.458   7.883   7.899
 2371W        W 9773   4.682   5.495   7.415
 2372W        W 9774   3.205   7.903   9.775
 2373W        W 9775  14.401   2.185   0.251
 2374W        W 9776   3.683   1.671   8.334
 2375W        W 9777  19.284   6.920   0.238
 2376W        W 9778   5.170   5.969   8.379
 2377W        W 9779  18.822   4.055   2.165
 2378W        W 9780  13.463   8.379   9.321
 2379W        W 9781  18.818   5.986   0.266
 2380W        W 9782  16.842   4.058   2.175
 2381W        W 9783   9.552   4.569   9.773
 2382W        W 9784  19.304   6.457   9.332
 2383W        W 9785  16.873   9.309   0.247
 2384W        W 9786  16.367   4.052   1.227
 2385W        W 9787   0.774   2.160   9.774
 2386W        W 9788  11.491   2.157   2.173
 2387W        W 9789  10.009   5.002   7.866
 2388W        W 9790  12.948   9.769   2.172
 2389W        W 9791  15.876   0.735   7.878
 2390W        W 9792   0.747   5.979   0.271
 2391W        W 9793  10.507   7.897   8.838
 2392W        W 9794   3.188   5.490   7.389
 2393W        W 9795  19.289   8.842   8.372
 2394W        W 9796   1.265   5.959   1.669
 2395W        W 9797   6.609   2.667   7.874
 2396W        W 9798  16.875   5.478   1.227
 2397W        W 9799  18.310   4.074   0.753
 2398W        W 9800  15.875   4.074   8.840
 2399W        W 9801   6.627   8.850   9.805
 2400W        W 9802   8.551   3.108   7.862
 2401W        W 9803   0.274   1.689   1.201
 2402W        W 9804  18.799   1.236   0.724
 2403W        W 9805   2.687   2.145   0.280
 2404W        W 9806   2.720   9.772   7.901
 2405W        W 9807   4.179   5.038   0.734
 2406W        W 9808  15.408   1.209   8.851
 2407W        W 9809  18.821   4.074   1.208
 2408W        W 9810  14.421   9.294   9.788
 2409W        W 9811  19.297   0.715   2.177
 2410W        W 9812   5.148   9.314   7.904
 2411W        W 9813   3.692   4.546   8.845
 2412W        W 9814   2.730   1.700   1.237
 2413W        W 9815   7.104   0.738   1.674
 2414W        W 9816  16.842   7.413   8.821
 2415W        W 9817  10.495   2.621   9.286
 2416W        W 9818   7.582   4.095   0.263
 2417W        W 9819   0.744   9.767   7.859
 2418W        W 9820  15.892   5.481   2.179
 2419W        W 9821   0.270   9.304   8.843
 2420W        W 9822   3.661   4.069   9.320
 2421W        W 9823   5.638   5.953   8.353
 2422W        W 9824   2.237   8.372   9.783
 2423W        W 9825  18.332   3.122   9.304
 2424W        W 9826  12.940   4.089   0.268
 2425W        W 9827  19.766   8.831   8.832
 2426W        W 9828   7.108   7.396   1.710
 2427W        W 9829  14.420   0.756   0.753
 2428W        W 9830   6.141   4.528   9.309
 2429W        W 9831  18.810   7.421   8.356
 2430W        W 9832  14.437   1.696   8.813
 2431W        W 9833   5.123   9.806   9.327
 2432W        W 9834   8.097   9.791   8.346
 2433W        W 9835  18.806   7.903   0.746
 2434W        W 9836   2.220   0.722   7.884
 2435W        W 9837   2.225   5.003   0.739
 2436W        W 9838   8.093   9.771   9.766
 2437W        W 9839  17.344   9.329   9.291
 2438W        W 9840  11.961   3.579   2.164
 2439W        W 9841  19.303   5.521   9.804
 2440W        W 9842  12.456   3.131   7.884
 2441W        W 9843  16.864   2.176   7.425
 2442W        W 9844  17.846   0.720   0.263
 2443W        W 9845   4.648   9.320   9.778
 2444W        W 9846   6.614   3.122   0.266
 2445W        W 9847  12.945   5.954   8.851
 2446W        W 9848  14.423   0.266   9.319
 2447W        W 9849  16.861   7.390   9.316
 2448W        W 9850   5.613   2.625   8.368
 2449W        W 9851   6.589   8.825   2.177
 2450W        W 9852  19.270   8.824   9.333
 2451W        W 9853   3.188   5.040   1.238
 2452W        W 9854   8.087   5.036   8.847
 2453W        W 9855  11.471   3.607   0.249
 2454W        W 9856   5.145   1.235   8.367
 2455W        W 9857  18.293   5.965   9.766
 2456W        W 9858  19.296   6.474   7.890
 2457W        W 9859   0.737   9.303   1.686
 2458W        W 9860  12.479   5.032   0.725
 2459W        W 9861  10.503   0.264   8.824
 2460W        W 9862   4.193   2.661   8.822
 2461W        W 9863  11.962   2.167   9.314
 2462W        W 9864  18.326   8.377   7.401
 2463W        W 9865   3.659   5.010   2.181
 2464W        W 9866   5.153   0.734   2.187
 2465W        W 9867  10.004   0.277   9.766
 2466W        W 9868   4.646   5.978   9.783
 2467W        W 9869   7.118   6.465   9.324
 2468W        W 9870   6.586   5.487   8.817
 2469W        W 9871  12.470   0.754   1.198
 2470W        W 9872   0.291   1.194   0.728
 2471W        W 9873   8.572   5.030   1.674
 2472W        W 9874  17.332   8.819   2.157
 2473W        W 9875   2.240   1.684   0.277
 2474W        W 9876   0.287   2.620   1.671
 2475W        W 9877  11.020   8.381   1.191
 2476W        W 9878  12.928   6.453   1.675
 2477W        W 9879   9.041   7.395   7.875
 2478W        W 9880  13.423   4.531   8.364
 2479W        W 9881   9.543   9.315   1.214
 2480W        W 9882   7.083   0.722   8.842
 2481W        W 9883   2.712   7.888   8.813
 2482W        W 9884  11.473   1.675   8.812
 2483W        W 9885  14.906   4.538   8.358
 2484W        W 9886  13.441   3.606   0.718
 2485W        W 9887  11.013   3.574   9.292
 2486W        W 9888   7.594   3.118   2.150
 2487W        W 9889  18.811   4.541   8.854
 2488W        W 9890   0.752   4.562   0.243
 2489W        W 9891   3.688   9.784   0.729
 2490W        W 9892   8.063   1.230   8.349
 2491W        W 9893   3.691   0.762   0.247
 2492W        W 9894   3.192   1.680   7.861
 2493W        W 9895   8.559   8.811   0.260
 2494W        W 9896  10.504   1.695   8.854
 2495W        W 9897   9.042   5.967   7.887
 2496W        W 9898   7.601   3.578   2.156
 2497W        W 9899   2.239   3.136   1.692
 2498W        W 9900   1.264   0.723   1.692
 2499W        W 9901   8.093   6.937   2.166
 2500W        W 9902   9.062   0.255   0.731
 2501W        W 9903   7.584   6.928   2.158
 2502W        W 9904  19.305   0.284   7.408
 2503W        W 9905  10.982   9.298   8.363
 2504W        W 9906   4.165   5.974   2.181
 2505W        W 9907  13.947   5.490   1.203
 2506W        W 9908  16.357   9.768   8.361
 2507W        W 9909  11.485   4.531   0.751
 2508W        W 9910   1.228   5.031   7.874
 2509W        W 9911  17.365   7.414   1.193
 2510W        W 9912   3.200   3.585   9.316
 2511W        W 9913  10.010   6.938   2.168
 2512W        W 9914  10.981   4.544   9.784
 2513W        W 9915   5.645   1.231   9.303
 2514W        W 9916   2.697   5.010   7.861
 2515W        W 9917   3.176   6.470   2.188
 2516W        W 9918  12.975   8.831   8.349
 2517W        W 9919   0.740   1.711   0.739
 2518W        W 9920   7.110   8.827   8.367
 2519W        W 9921  10.034   4.546   0.259
 2520W        W 9922  17.337   8.340   7.884
 2521W        W 9923   9.042   9.804   0.732
 2522W        W 9924   4.679   2.636   9.794
 2523W        W 9925  18.300   9.307   8.849
 2524W        W 9926   1.263   3.618   8.820
 2525W        W 9927  15.874   2.624   7.904
 2526W        W 9928  11.468   7.869   0.741
 2527W        W 9929   7.562   8.852   8.817
 2528W        W 9930  11.489   8.846   8.359
 2529W        W 9931   6.620   5.993   0.268
 2530W        W 9932   0.755   5.955   9.327
 2531W        W 9933  10.990   1.223   1.207
 2532W        W 9934   8.065   5.482   9.769
 2533W        W 9935   0.280   5.515   1.679
 2534W        W 9936   5.614   3.099   0.262
 2535W        W 9937  17.353   5.012   0.277
 2536W        W 9938  17.807   0.743   7.403
 2537W        W 9939   3.181   8.819   2.148
 2538W        W 9940   6.125   4.054   0.285
 2539W        W 9941  12.456   8.817   0.719
 2540W        W 9942   9.032   1.681   8.815
 2541W        W 9943  15.398   9.773   7.398
 2542W        W 9944   1.251   7.386   9.800
 2543W        W 9945   4.648   7.427   7.868
 2544W        W 9946  11.006   8.371   1.706
 2545W        W 9947  13.422   9.774   1.195
 2546W        W 9948  15.409   2.175   0.738
 2547W        W 9949   6.616   6.912   0.266
 2548W        W 9950  11.016   5.028   9.788
 2549W        W 9951   5.130   4.089   2.188
 2550W        W 9952   0.756   8.370   1.230
 2551W        W 9953  13.442   2.650   0.737
 2552W        W 9954  10.046   4.048   8.380
 2553W        W 9955  14.417   1.214   9.289
 2554W        W 9956   3.173   2.144   8.380
 2555W        W 9957   9.050   0.721   9.794
 2556W        W 9958   2.724   5.496   1.699
 2557W        W 9959  12.459   7.423   2.162
 2558W        W 9960  17.811   1.226   8.857
 2559W        W 9961   0.760   2.151   0.741
 2560W        W 9962  11.477   4.064   0.268
 2561W        W 9963  18.825   0.262   9.781
 2562W        W 9964  14.887   2.145   0.254
 2563W        W 9965  16.343   0.257   1.216
 2564W        W 9966   0.253   1.682   0.736
 2565W        W 9967   7.091   6.917   9.295
 2566W        W 9968   6.129   4.081   0.759
 2567W        W 9969  19.297   5.962   2.181
 2568W        W 9970  15.902   6.926   2.636
 2569W        W 9971   2.196   1.212   1.227
 2570W        W 9972  12.459   5.000   1.217
 2571W        W 9973  12.951   0.262   8.855
 2572W        W 9974   8.074   6.938   8.341
 2573W        W 9975   5.624   8.813   0.746
 2574W        W 9976  14.921   0.282   8.334
 2575W        W 9977  12.965   4.559   7.397
 2576W        W 9978  11.968   3.139   9.325
 2577W        W 9979  15.413   7.395   1.214
 2578W        W 9980  13.942   8.819   0.244
 2579W        W 9981   2.688   0.724   9.288
 2580W        W 9982  11.956   8.362   8.827
 2581W        W 9983  10.489   0.719   9.798
 2582W        W 9984  16.374   3.115   1.194
 2583W        W 9985  17.319   5.519   2.162
 2584W        W 9986  13.455   3.573   9.780
 2585W        W 9987   2.698   4.533   2.177
 2586W        W 9988   6.598   6.443   9.785
 2587W        W 9989  14.905   1.713   7.888
 2588W        W 9990   6.616   3.103   8.855
 2589W        W 9991   5.129   3.592   1.221
 2590W        W 9992   7.608   3.117   1.691
 2591W        W 9993  13.442   6.918   9.330
 2592W        W 9994  19.786   0.735   9.777
 2593W        W 9995   9.060   6.906   1.210
 2594W        W 9996   9.515   1.211   7.868
 2595W        W 9997   9.071   7.900   8.847
 2596W        W 9998   6.623   4.072   7.890
 2597W        W 9999   5.641   5.954   7.887
 2598W        W10000  10.032   7.882   1.703
 2599W        W10001   2.215   9.300   0.726
 2600W        W10002  10.493   8.360   9.305
 2601W        W10003  17.842   2.162   2.666
 2602W        W10004  16.356   3.114   2.665
 2603W        W10005   4.185   2.664   9.318
 2604W        W10006  16.353   7.393   1.678
 2605W        W10007   9.073   6.000   9.786
 2606W        W10008   5.143   8.352   9.300
 2607W        W10009   1.234   1.670   9.773
 2608W        W10010   0.757   6.470   8.369
 2609W        W10011   5.629   9.772   0.276
 2610W        W10012   4.679   3.608   1.202
 2611W        W10013   2.213   2.621   2.652
 2612W        W10014  17.360   1.709   0.746
 2613W        W10015   9.072   5.020   9.808
 2614W        W10016   0.773   4.055   1.214
 2615W        W10017  17.811   4.094   8.810
 2616W        W10018  16.841   6.000   0.264
 2617W        W10019  14.896   6.467   1.225
 2618W        W10020   5.137   2.622   8.338
 2619W        W10021   5.147   0.724   8.379
 2620W        W10022   5.652   4.057   2.171
 2621W        W10023  15.874   7.428   0.730
 2622W        W10024   4.171   7.896   8.349
 2623W        W10025   6.125   8.816   9.300
 2624W        W10026   2.226   2.666   9.762
 2625W        W10027   3.659   3.102   0.731
 2626W        W10028   0.251   9.793   8.358
 2627W        W10029  14.397   5.975   8.827
 2628W        W10030   3.203   8.854   1.218
 2629W        W10031   0.748   6.474   2.187
 2630W        W10032   6.586   3.126   1.198
 2631W        W10033   0.743   4.085   0.752
 2632W        W10034  19.787   5.480   0.277
 2633W        W10035   1.747   0.721   9.765
 2634W        W10036   6.633   5.991   9.317
 2635W        W10037   5.623   7.897   0.748
 2636W        W10038   1.743   8.343   8.341
 2637W        W10039   2.709   9.289   9.771
 2638W        W10040  11.466   2.645   2.172
 2639W        W10041   2.222   6.938   2.660
 2640W        W10042  10.515   2.183   8.342
 2641W        W10043  15.887   1.194   1.200
 2642W        W10044  18.812   8.843   9.323
 2643W        W10045   7.112   1.707   8.836
 2644W        W10046  17.334   5.492   9.763
 2645W        W10047  10.006   8.840   8.344
 2646W        W10048  18.340   5.481   0.272
 2647W        W10049  11.957   4.050   0.241
 2648W        W10050   5.643   9.313   8.832
 2649W        W10051   8.558   2.159   8.369
 2650W        W10052   9.041   3.604   9.786
 2651W        W10053   3.700   1.707   0.745
 2652W        W10054  19.317   6.464   7.381
 2653W        W10055   4.171   6.923   7.894
 2654W        W10056  10.493   1.708   7.899
 2655W        W10057  10.018   5.960   9.301
 2656W        W10058   3.205   7.399   2.635
 2657W        W10059   1.728   3.598   1.707
 2658W        W10060  19.274   5.998   8.852
 2659W        W10061  15.386   8.825   9.300
 2660W        W10062   8.538   9.312   1.223
 2661W        W10063   4.651   6.944   1.216
 2662W        W10064  12.949   8.848   0.268
 2663W        W10065   0.757   0.282   9.303
 2664W        W10066   4.652   5.972   0.715
 2665W        W10067   3.662   3.581   8.348
 2666W        W10068   1.266   9.794   1.677
 2667W        W10069  19.284   9.316   7.395
 2668W        W10070   7.076   5.016   2.153
 2669W        W10071   4.170   6.928   2.633
 2670W        W10072   7.562   9.305   9.300
 2671W        W10073   4.645   3.612   0.724
 2672W        W10074  18.293   8.841   1.685
 2673W        W10075  11.978   1.709   0.238
 2674W        W10076   0.740   2.167   1.208
 2675W        W10077   1.236   6.940   8.827
 2676W        W10078   1.745   3.581   8.834
 2677W        W10079  11.021   8.375   2.177
 2678W        W10080  17.334   5.955   9.322
 2679W        W10081  14.898   4.570   9.296
 2680W        W10082  16.343   5.028   0.244
 2681W        W10083   2.211   6.930   7.393
 2682W        W10084   1.253   5.017   0.725
 2683W        W10085  17.844   0.753   8.848
 2684W        W10086   0.262   9.309   7.861
 2685W        W10087  16.350   9.295   2.185
 2686W        W10088  10.017   0.760   8.822
 2687W        W10089   9.060   5.044   9.299
 2688W        W10090   9.068   1.217   8.819
 2689W        W10091   7.578   9.783   9.806
 2690W        W10092  16.355   0.740   7.889
 2691W        W10093   8.050   1.700   0.728
 2692W        W10094  10.494   3.607   1.235
 2693W        W10095  16.872   7.895   8.342
 2694W        W10096  15.865   4.563   9.327
 2695W        W10097  17.838   7.881   8.820
 2696W        W10098   6.631   3.134   1.701
 2697W        W10099   6.607   8.370   9.320
 2698W        W10100   8.055   0.253   9.313
 2699W        W10101  16.379   3.589   7.889
 2700W        W10102   8.076   9.292   7.886
 2701W        W10103  17.342   2.657   8.345
 2702W        W10104   6.143   1.238   0.260
 2703W        W10105  19.274   7.903   9.299
 2704W        W10106   7.599   6.927   1.200
 2705W        W10107  19.762   8.373   9.785
 2706W        W10108   8.082   2.645   0.247
 2707W        W10109  18.341   3.139   1.714
 2708W        W10110   9.537   1.228   0.756
 2709W        W10111   4.158   2.620   0.271
 2710W        W10112   5.627   3.104   1.708
 2711W        W10113   7.097   2.168   9.773
 2712W        W10114   6.130   6.911   9.792
 2713W        W10115   3.176   5.993   2.148
 2714W        W10116   9.042   3.141   9.318
 2715W        W10117  15.902   8.840   8.838
 2716W        W10118  18.783   8.355   9.319
 2717W        W10119   5.643   9.313   2.650
 2718W        W10120   5.617   8.842   1.199
 2719W        W10121  18.781   8.848   0.264
 2720W        W10122  14.434   8.825   0.752
 2721W        W10123   2.212   0.255   7.903
 2722W        W10124   1.738   9.805   2.190
 2723W        W10125   5.158   6.931   2.151
 2724W        W10126   7.099   5.488   8.829
 2725W        W10127  17.350   9.293   8.360
 2726W        W10128   8.542   5.957   9.783
 2727W        W10129  13.931   3.101   2.152
 2728W        W10130   2.718   0.722   8.335
 2729W        W10131  13.418   3.586   1.669
 2730W        W10132   2.222   5.010   7.861
 2731W        W10133  14.912   3.578   0.264
 2732W        W10134  15.861   3.104   2.158
 2733W        W10135   6.602   5.988   1.210
 2734W        W10136  17.834   6.930   9.294
 2735W        W10137   2.688   6.940   8.351
 2736W        W10138  11.958   1.677   0.751
 2737W        W10139   6.138   7.890   2.189
 2738W        W10140  15.882   6.947   1.703
 2739W        W10141  10.043   1.211   2.189
 2740W        W10142   1.248   3.116   8.358
 2741W        W10143   4.644   7.877   1.686
 2742W        W10144   2.242   9.306   8.829
 2743W        W10145   6.146   5.016   8.853
 2744W        W10146  10.031   3.612   2.146
 2745W        W10147   2.684   3.601   0.760
 2746W        W10148   8.552   2.653   1.228
 2747W        W10149  16.842   9.300   9.309
 2748W        W10150   2.706   1.700   7.877
 2749W        W10151  18.315   5.995   0.733
 2750W        W10152   4.180   0.755   1.194
 2751W        W10153   2.216   7.411   9.801
 2752W        W10154  13.448   1.701   9.803
 2753W        W10155   7.597   6.468   9.323
 2754W        W10156  12.478   1.702   2.173
 2755W        W10157  10.980   3.129   8.815
 2756W        W10158   1.724   2.179   1.225
 2757W        W10159   2.705   9.778   0.725
 2758W        W10160   9.028   1.194   7.896
 2759W        W10161   2.707   5.982   7.904
 2760W        W10162   9.519   9.802   8.365
 2761W        W10163  11.491   8.346   2.158
 2762W        W10164   8.093   4.078   1.706
 2763W        W10165   5.150   0.717   1.224
 2764W        W10166  13.440   3.110   0.758
 2765W        W10167  16.855   3.601   7.892
 2766W        W10168  18.808   5.047   8.334
 2767W        W10169  17.834   8.835   0.273
 2768W        W10170   5.626   0.720   1.697
 2769W        W10171   7.600   9.310   7.868
 2770W        W10172  10.524   2.147   0.280
 2771W        W10173   2.703   5.017   8.834
 2772W        W10174   5.138   8.830   8.353
 2773W        W10175   7.121   3.104   2.188
 2774W        W10176   9.035   2.173   8.834
 2775W        W10177  13.451   3.139   2.653
 2776W        W10178   4.658   8.338   8.355
 2777W        W10179   9.027   0.729   9.317
 2778W        W10180   0.753   1.687   2.172
 2779W        W10181   8.095   5.520   0.270
 2780W        W10182  13.461   8.843   1.236
 2781W        W10183  14.895   4.533   0.252
 2782W        W10184   1.259   1.698   2.190
 2783W        W10185  10.505   5.046   7.901
 2784W        W10186  15.885   5.523   1.237
 2785W        W10187  13.449   0.720   2.647
 2786W        W10188  18.338   9.332   9.771
 2787W        W10189  14.920   3.129   9.330
 2788W        W10190  10.513   5.515   1.667
 2789W        W10191  12.444   9.315   2.183
 2790W        W10192  11.478   2.173   0.733
 2791W        W10193  13.446   4.539   7.401
 2792W        W10194  18.828   5.006   1.694
 2793W        W10195  11.470   1.203   1.210
 2794W        W10196  18.307   0.240   1.191
 2795W        W10197   4.664   2.160   0.265
 2796W        W10198  16.370   7.416   1.224
 2797W        W10199   8.552   1.234   7.876
 2798W        W10200   1.232   5.009   9.317
 2799W        W10201  17.850   1.213   0.269
 2800W        W10202  19.308   7.875   7.882
 2801W        W10203   1.239   4.061   9.324
 2802W        W10204   0.749   2.653   0.255
 2803W        W10205   1.242   9.292   0.758
 2804W        W10206   0.271   4.087   7.389
 2805W        W10207   5.136   7.894   8.833
 2806W        W10208   7.567   7.398   8.854
 2807W        W10209   2.725   0.262   9.782
 2808W        W10210   8.578   3.588   8.849
 2809W        W10211   5.628   4.083   7.404
 2810W        W10212  17.328   4.524   8.364
 2811W        W10213  11.024   4.555   1.703
 2812W        W10214  17.363   2.629   9.322
 2813W        W10215   9.532   8.818   1.708
 2814W        W10216   2.731   1.216   0.743
 2815W        W10217   4.649   1.699   7.871
 2816W        W10218  11.956   4.065   9.302
 2817W        W10219   4.676   7.874   9.331
 2818W        W10220  13.931   9.764   8.367
 2819W        W10221   3.690   0.759   2.639
 2820W        W10222  13.948   3.113   8.339
 2821W        W10223  11.500   5.029   1.236
 2822W        W10224  10.032   3.135   0.747
 2823W        W10225   7.567   2.173   2.655
 2824W        W10226   9.039   5.515   8.847
 2825W        W10227   1.745   9.777   0.725
 2826W        W10228   2.711   6.448   2.164
 2827W        W10229  19.282   3.597   1.191
 2828W        W10230  18.334   9.781   7.887
 2829W        W10231   8.539   5.002   8.358
 2830W        W10232  11.017   0.750   7.898
 2831W        W10233   3.200   3.605   9.787
 2832W        W10234  10.006   3.096   0.253
 2833W        W10235   4.185   4.557   1.713
 2834W        W10236  12.458   7.428   0.283
 2835W        W10237  10.981   6.924   8.810
 2836W        W10238   1.260   4.540   1.691
 2837W        W10239  10.513   4.090   1.709
 2838W        W10240  16.842   8.823   0.247
 2839W        W10241  14.903   8.365   9.300
 2840W        W10242  14.413   7.399   9.801
 2841W        W10243  12.463   0.279   2.167
 2842W        W10244   6.119   8.849   9.806
 2843W        W10245   0.749   4.557   2.168
 2844W        W10246  14.920   5.990   0.254
 2845W        W10247  11.019   3.582   8.827
 2846W        W10248   3.209   5.026   8.820
 2847W        W10249   4.171   5.032   8.850
 2848W        W10250  11.957   7.899   1.218
 2849W        W10251  16.840   5.003   0.727
 2850W        W10252   9.068   6.942   7.898
 2851W        W10253   0.739   2.666   1.197
 2852W        W10254   8.093   5.501   8.854
 2853W        W10255   8.538   9.791   9.776
 2854W        W10256   1.736   5.021   8.355
 2855W        W10257   3.659   2.650   8.828
 2856W        W10258  17.817   7.866   9.288
 2857W        W10259  10.026   4.552   1.674
 2858W        W10260  17.319   7.387   0.267
 2859W        W10261  15.880   7.860   8.334
 2860W        W10262  10.495   7.406   8.844
 2861W        W10263  15.854   3.142   8.373
 2862W        W10264   7.087   5.490   8.337
 2863W        W10265  13.931   1.685   8.817
 2864W        W10266  10.512   7.412   8.343
 2865W        W10267  17.321   5.040   7.901
 2866W        W10268   5.648   0.752   8.832
 2867W        W10269   4.194   6.914   8.352
 2868W        W10270   6.139   0.731   0.260
 2869W        W10271   8.540   2.158   7.874
 2870W        W10272   1.257   8.375   0.715
 2871W        W10273   2.209   1.684   1.227
 2872W        W10274   8.557   3.108   8.833
 2873W        W10275  12.454   3.597   8.337
 2874W        W10276  17.848   0.727   8.369
 2875W        W10277  13.946   6.919   1.677
 2876W        W10278   5.168   9.294   1.684
 2877W        W10279  12.951   3.587   2.170
 2878W        W10280   5.137   7.409   1.684
 2879W        W10281  19.766   1.667   9.314
 2880W        W10282  16.344   2.178   8.357
 2881W        W10283  11.494   5.025   8.336
 2882W        W10284  14.889   3.140   9.801
 2883W        W10285   0.767   5.039   0.726
 2884W        W10286   3.214   8.838   9.293
 2885W        W10287  16.837   8.362   2.146
 2886W        W10288   0.753   5.035   9.306
 2887W        W10289  15.392   0.257   2.662
 2888W        W10290   7.592   6.921   0.279
 2889W        W10291  16.351   9.324   8.819
 2890W        W10292   3.185   5.028   9.316
 2891W        W10293  10.995   7.403   0.716
 2892W        W10294  19.309   6.935   7.858
 2893W        W10295  10.511   3.134   7.404
 2894W        W10296  10.984   1.194   0.746
 2895W        W10297   9.558   2.651   2.145
 2896W        W10298   3.677   9.794   2.190
 2897W        W10299   7.587   7.879   1.212
 2898W        W10300  14.437   3.133   8.832
 2899W        W10301  16.372   5.046   9.809
 2900W        W10302  19.287   8.848   2.149
 2901W        W10303   9.550   5.484   1.675
 2902W        W10304   2.208   8.377   0.756
 2903W        W10305  15.884   3.109   9.314
 2904W        W10306   7.117   4.062   9.302
 2905W        W10307   0.251   2.177   2.163
 2906W        W10308   5.130   3.140   9.806
 2907W        W10309  19.799   6.461   0.285
 2908W        W10310   6.098   7.885   1.704
 2909W        W10311  11.996   4.544   8.372
 2910W        W10312  14.915   4.080   9.766
 2911W        W10313   1.225   3.603   0.266
 2912W        W10314   5.642   3.580   9.294
 2913W        W10315  11.001   7.426   1.679
 2914W        W10316  17.322   2.173   9.309
 2915W        W10317  11.015   1.705   8.848
 2916W        W10318  14.419   6.451   9.313
 2917W        W10319  19.787   8.822   1.704
 2918W        W10320  11.012   7.417   9.291
 2919W        W10321  16.856   8.846   0.740
 2920W        W10322  13.924   6.927   9.802
 2921W        W10323   9.069   4.067   0.752
 2922W        W10324   4.650   6.935   8.846
 2923W        W10325  13.904   4.066   9.319
 2924W        W10326  15.378   9.304   7.877
 2925W        W10327   9.033   0.253   9.326
 2926W        W10328   2.241   2.636   9.325
 2927W        W10329  17.349   1.703   2.163
 2928W        W10330   9.534   6.430   2.143
 2929W        W10331  19.773   0.735   9.318
 2930W        W10332   8.062   8.848   0.740
 2931W        W10333   1.727   2.628   9.314
 2932W        W10334  13.903   7.862   7.903
 2933W        W10335  13.419   2.149   0.738
 2934W        W10336  17.837   7.896   8.354
 2935W        W10337   7.098   8.359   9.762
 2936W        W10338  15.855   6.468   8.355
 2937W        W10339  10.022   5.970   0.744
 2938W        W10340   0.769   4.075   9.320
 2939W        W10341  11.504   5.973   7.879
 2940W        W10342  10.494   5.523   8.379
 2941W        W10343  15.893   3.126   8.850
 2942W        W10344  18.795   4.054   1.683
 2943W        W10345  16.363   9.792   0.759
 2944W        W10346  10.511   8.827   9.309
 2945W        W10347   0.274   7.404   0.250
 2946W        W10348  12.442   8.366   7.889
 2947W        W10349   1.735   5.480   0.742
 2948W        W10350   0.775   7.421   9.786
 2949W        W10351   9.535   8.377   2.158
 2950W        W10352  11.508   9.791   1.671
 2951W        W10353  12.454   2.633   1.211
 2952W        W10354  12.974   2.183   2.178
 2953W        W10355  10.495   4.525   9.793
 2954W        W10356   1.714   5.517   9.298
 2955W        W10357   8.073   4.544   9.323
 2956W        W10358   6.619   1.233   0.248
 2957W        W10359   8.071   3.588   8.825
 2958W        W10360  12.457   7.406   9.773
 2959W        W10361   4.159   9.800   1.676
 2960W        W10362   6.589   1.699   2.163
 2961W        W10363  16.869   0.745   8.373
 2962W        W10364  19.774   8.847   9.772
 2963W        W10365   7.572   5.503   1.215
 2964W        W10366  17.807   5.989   9.328
 2965W        W10367  11.973   5.955   0.285
 2966W        W10368   4.159   1.690   8.840
 2967W        W10369   2.728   5.963   0.734
 2968W        W10370   1.236   5.483   9.777
 2969W        W10371  14.405   5.496   1.207
 2970W        W10372  14.436   2.151   7.871
 2971W        W10373   2.685   8.346   2.162
 2972W        W10374   4.679   9.302   1.688
 2973W        W10375  17.824   1.236   1.194
 2974W        W10376  15.414   4.055   2.175
 2975W        W10377   6.106   8.364   0.722
 2976W        W10378   7.592   5.010   0.241
 2977W        W10379  17.815   6.944   9.766
 2978W        W10380  19.289   6.937   9.772
 2979W        W10381   4.635   2.163   1.699
 2980W        W10382  10.001   0.274   8.363
 2981W        W10383  14.913   6.931   9.289
 2982W        W10384   5.620   1.682   1.672
 2983W        W10385   7.099   9.782   8.378
 2984W        W10386  13.923   5.508   1.690
 2985W        W10387  18.809   7.867   1.698
 2986W        W10388   1.224   5.992   1.212
 2987W        W10389   1.233   5.012   2.149
 2988W        W10390   5.134   0.749   0.257
 2989W        W10391   7.581   7.424   0.730
 2990W        W10392  15.372   5.496   7.881
 2991W        W10393  17.350   3.101   2.156
 2992W        W10394   6.633   6.446   0.735
 2993W        W10395   2.237   4.530   1.683
 2994W        W10396  11.000   0.720   0.721
 2995W        W10397  11.956   8.851   8.818
 2996W        W10398  18.315   7.901   0.726
 2997W        W10399  11.006   3.114   0.721
 2998W        W10400   0.250   1.680   9.804
 2999W        W10401  13.442   4.051   1.232
 3000W        W10402   9.062   6.927   8.843
 3001W        W10403  13.949   7.897   9.802
 3002W        W10404   5.650   4.557   2.159
 3003W        W10405   7.591   7.397   9.783
 3004W        W10406  13.447   2.156   1.704
 3005W        W10407   7.119   4.063   8.340
 3006W        W10408   7.606   5.953   7.902
 3007W        W10409   7.121   5.975   7.875
 3008W        W10410   1.713   5.971   0.746
 3009W        W10411  11.485   6.910   7.899
 3010W        W10412   1.244   9.312   2.158
 3011W        W10413  10.001   5.520   9.806
 3012W        W10414   5.135   4.571   7.869
 3013W        W10415  19.764   0.251   8.811
 3014W        W10416  10.004   1.683   9.309
 3015W        W10417  17.844   7.409   0.758
 3016W        W10418   2.684   4.088   0.757
 3017W        W10419   6.124   5.037   0.261
 3018W        W10420  11.500   3.608   9.289
 3019W        W10421   1.263   5.039   8.343
 3020W        W10422  14.892   0.742   0.726
 3021W        W10423  12.474   2.637   8.374
 3022W        W10424  15.880   1.694   9.804
 3023W        W10425  17.836   6.920   2.184
 3024W        W10426   2.728   1.708   9.762
 3025W        W10427   2.227   5.959   1.698
 3026W        W10428   7.567   8.836   7.858
 3027W        W10429  11.997   1.231   7.862
 3028W        W10430  18.325   3.615   9.774
 3029W        W10431  11.023   5.968   9.783
 3030W        W10432  17.328   8.841   8.829
 3031W        W10433   0.282   6.431   2.650
 3032W        W10434  13.429   7.390   9.799
 3033W        W10435   7.571   2.634   8.827
 3034W        W10436  15.413   8.353   9.295
 3035W        W10437  16.837   4.549   1.669
 3036W        W10438  12.969   4.546   8.353
 3037W        W10439   4.635   5.036   0.280
 3038W        W10440  18.811   2.633   7.882
 3039W        W10441  11.490   4.531   8.355
 3040W        W10442  16.861   4.062   0.275
 3041W        W10443  11.964   6.435   9.303
 3042W        W10444  10.031   2.165   2.161
 3043W        W10445  15.871   6.476   9.309
 3044W        W10446   8.542   8.850   1.709
 3045W        W10447  10.521   9.328   0.239
 3046W        W10448   7.077   2.635   1.220
 3047W        W10449  16.871   0.753   1.208
 3048W        W10450   5.622   1.226   1.701
 3049W        W10451  10.000   3.602   9.782
 3050W        W10452  10.042   3.619   7.903
 3051W        W10453  17.839   5.960   7.900
 3052W        W10454  12.447   2.173   9.316
 3053W        W10455  14.393   7.424   2.177
 3054W        W10456   0.291   5.044   8.372
 3055W        W10457   8.539   4.075   7.881
 3056W        W10458   6.626   8.364   0.260
 3057W        W10459  10.994   6.468   1.693
 3058W        W10460  15.374   7.411   8.362
 3059W        W10461   7.568   2.159   8.824
 3060W        W10462  10.488   7.388   0.270
 3061W        W10463   0.292   1.226   9.769
 3062W        W10464   3.193   5.516   0.276
 3063W        W10465   9.070   1.226   9.774
 3064W        W10466  11.993   3.577   9.309
 3065W        W10467   9.523   0.261   0.279
 3066W        W10468  17.319   3.122   7.865
 3067W        W10469   1.731   4.566   9.806
 3068W        W10470  18.334   6.459   9.320
 3069W        W10471   8.574   9.326   1.681
 3070W        W10472   1.244   1.696   9.322
 3071W        W10473  12.441   0.257   1.696
 3072W        W10474   7.564   4.065   1.701
 3073W        W10475   0.755   0.715   0.252
 3074W        W10476   4.168   6.444   2.162
 3075W        W10477   2.208   1.202   9.291
 3076W        W10478   8.087   9.309   1.193
 3077W        W10479  15.410   5.515   1.220
 3078W        W10480   1.233   2.162   1.191
 3079W        W10481   3.211   4.080   9.783
 3080W        W10482  18.328   5.003   0.753
 3081W        W10483  11.999   5.495   9.801
 3082W        W10484  19.801   3.127   7.902
 3083W        W10485   9.522   7.874   2.634
 3084W        W10486  19.783   2.648   1.692
 3085W        W10487   5.637   0.734   1.237
 3086W        W10488  11.476   4.078   9.313
 3087W        W10489   5.131   5.502   8.837
 3088W        W10490  15.873   7.872   1.680
 3089W        W10491   5.133   9.328   7.412
 3090W        W10492  16.348   3.582   0.239
 3091W        W10493  10.978   8.367   8.835
 3092W        W10494   7.089   5.972   1.236
 3093W        W10495  11.968   9.799   9.806
 3094W        W10496   6.603   4.571   1.213
 3095W        W10497  11.483   7.901   9.764
 3096W        W10498  12.466   4.569   9.316
 3097W        W10499  11.501   8.852   9.802
 3098W        W10500   7.577   9.305   1.226
 3099W        W10501  18.293   3.574   1.684
 3100W        W10502   2.233   9.767   8.366
 3101W        W10503  11.963   7.398   9.309
 3102W        W10504   9.524   8.826   9.302
 3103W        W10505  12.483   5.981   1.708
 3104W        W10506  11.971   7.898   2.149
 3105W        W10507  16.873   0.723   0.746
 3106W        W10508  18.793   0.759   0.748
 3107W        W10509   5.161   5.032   9.767
 3108W        W10510   1.748   6.923   7.413
 3109W        W10511   0.258   9.310   1.695
 3110W        W10512   1.234   4.529   2.152
 3111W        W10513   5.624   8.848   0.256
 3112W        W10514   8.578   9.311   2.152
 3113W        W10515  10.048   6.447   1.699
 3114W        W10516  15.377   9.317   0.729
 3115W        W10517  18.806   0.756   9.776
 3116W        W10518  12.446   1.200   0.749
 3117W        W10519   4.676   4.082   1.677
 3118W        W10520  19.769   8.353   9.323
 3119W        W10521  13.939   2.158   2.632
 3120W        W10522   8.549   8.835   7.883
 3121W        W10523  13.949   7.886   1.229
 3122W        W10524  19.778   5.013   7.900
 3123W        W10525  17.853   2.179   7.890
 3124W        W10526   2.236   3.579   8.840
 3125W        W10527   8.556   4.054   1.220
 3126W        W10528  16.842   7.416   0.249
 3127W        W10529   2.705   5.995   1.697
 3128W        W10530   9.551   6.453   0.724
 3129W        W10531   9.549   3.113   9.792
 3130W        W10532   6.127   9.301   9.289
 3131W        W10533  15.400   5.963   0.250
 3132W        W10534  15.413   9.320   9.768
 3133W        W10535   4.166   7.406   9.310
 3134W        W10536   5.623   2.180   0.254
 3135W        W10537  13.455   0.749   1.708
 3136W        W10538   0.745   2.170   0.282
 3137W        W10539   6.135   9.793   1.209
 3138W        W10540   7.602   5.985   1.200
 3139W        W10541  10.516   4.552   8.368
 3140W        W10542   5.642   9.793   7.897
 3141W        W10543   9.542   6.919   1.704
 3142W        W10544   5.638   7.426   8.340
 3143W        W10545   6.119   3.117   9.330
 3144W        W10546   5.638   9.774   8.349
 3145W        W10547  18.325   5.007   1.230
 3146W        W10548  15.377   5.995   7.422
 3147W        W10549  10.991   5.492   8.810
 3148W        W10550   3.199   2.179   9.309
 3149W        W10551  10.529   0.257   1.208
 3150W        W10552  10.983   6.449   0.737
 3151W        W10553  17.364   1.204   9.291
 3152W        W10554  17.827   7.885   0.741
 3153W        W10555   7.097   3.133   7.859
 3154W        W10556  10.508   9.291   8.339
 3155W        W10557  19.298   2.636   2.144
 3156W        W10558  16.867   2.148   0.271
 3157W        W10559   7.601   9.804   8.829
 3158W        W10560  18.806   9.766   2.170
 3159W        W10561   1.728   5.042   1.232
 3160W        W10562  15.895   3.143   0.251
 3161W        W10563   0.757   9.786   9.780
 3162W        W10564  11.505   3.123   7.882
 3163W        W10565   2.718   3.601   7.887
 3164W        W10566  11.503   8.336   8.374
 3165W        W10567  10.048   1.220   1.691
 3166W        W10568  13.439   9.770   8.824
 3167W        W10569  12.473   1.235   0.249
 3168W        W10570  10.515   5.989   2.175
 3169W        W10571  17.806   4.087   0.283
 3170W        W10572   6.100   2.153   0.740
 3171W        W10573  19.804   7.399   7.890
 3172W        W10574   4.148   1.234   7.875
 3173W        W10575   9.521   4.555   8.335
 3174W        W10576   9.513   8.850   1.216
 3175W        W10577  18.803   9.795   1.201
 3176W        W10578  12.933   6.928   7.902
 3177W        W10579   7.122   8.358   0.729
 3178W        W10580   7.092   0.719   9.766
 3179W        W10581  15.369   8.853   1.711
 3180W        W10582   0.776   1.229   0.282
 3181W        W10583   8.079   2.157   8.336
 3182W        W10584   3.211   9.789   9.801
 3183W        W10585  10.982   0.754   0.267
 3184W        W10586   9.070   4.079   9.791
 3185W        W10587   7.104   7.390   8.833
 3186W        W10588  16.859   1.706   7.858
 3187W        W10589  11.488   1.229   0.749
 3188W        W10590   1.222   9.781   1.237
 3189W        W10591  10.006   2.622   8.347
 3190W        W10592   3.665   2.154   9.316
 3191W        W10593   8.063   4.057   1.223
 3192W        W10594   3.699   5.984   7.895
 3193W        W10595  14.879   2.621   8.848
 3194W        W10596  18.301   2.160   1.227
 3195W        W10597   9.541   3.111   2.650
 3196W        W10598  15.894   1.696   0.249
 3197W        W10599   2.227   3.581   7.388
 3198W        W10600  12.440   9.321   0.271
 3199W        W10601   2.701   4.089   1.209
 3200W        W10602  11.980   7.891   0.261
 3201W        W10603  13.918   4.048   1.674
 3202W        W10604  18.305   2.662   2.173
 3203W        W10605   3.684   6.931   1.671
 3204W        W10606  11.015   3.125   2.147
 3205W        W10607  19.764   1.220   7.864
 3206W        W10608   2.692   8.339   7.883
 3207W        W10609  12.484   0.281   8.812
 3208W        W10610   6.596   7.424   7.858
 3209W        W10611  12.479   3.114   9.324
 3210W        W10612  19.767   1.691   8.349
 3211W        W10613   4.153   2.172   1.236
 3212W        W10614  17.846   7.885   1.693
 3213W        W10615   6.613   9.763   1.237
 3214W        W10616   8.542   6.449   1.675
 3215W        W10617  16.855   5.516   8.356
 3216W        W10618  16.353   6.913   7.420
 3217W        W10619  13.936   8.344   0.754
 3218W        W10620  16.861   2.157   2.180
 3219W        W10621  12.450   5.505   8.814
 3220W        W10622   1.738   0.256   2.177
 3221W        W10623  13.943   6.467   0.254
 3222W        W10624   0.284   1.688   9.298
 3223W        W10625  17.812   1.226   9.763
 3224W        W10626  15.408   2.173   7.897
 3225W        W10627   3.199   5.478   9.297
 3226W        W10628  12.954   9.782   7.896
 3227W        W10629  17.321   2.172   1.198
 3228W        W10630   9.540   5.510   8.343
 3229W        W10631  12.967   0.723   9.329
 3230W        W10632   4.656   3.104   0.277
 3231W        W10633  14.889   1.223   0.728
 3232W        W10634  11.469   4.049   7.892
 3233W        W10635  10.034   0.271   9.286
 3234W        W10636   9.051   6.922   2.180
 3235W        W10637  16.357   9.326   9.323
 3236W        W10638  13.418   0.281   0.724
 3237W        W10639   0.290   6.947   7.391
 3238W        W10640   5.162   3.134   8.841
 3239W        W10641  10.037   2.179   0.754
 3240W        W10642   1.256   1.223   9.797
 3241W        W10643   1.711   6.462   9.292
 3242W        W10644   1.228   5.977   8.377
 3243W        W10645   7.077   3.106   2.631
 3244W        W10646   5.128   1.196   1.699
 3245W        W10647   1.250   9.770   0.726
 3246W        W10648  12.952   7.869   0.739
 3247W        W10649   8.096   3.137   1.201
 3248W        W10650  17.851   5.517   0.274
 3249W        W10651   4.164   7.858   8.853
 3250W        W10652  16.345   1.234   1.675
 3251W        W10653   3.193   5.983   1.216
 3252W        W10654   8.080   0.735   2.169
 3253W        W10655   3.672   5.482   9.795
 3254W        W10656   3.203   4.081   1.672
 3255W        W10657   1.238   5.020   8.817
 3256W        W10658   9.047   1.709   9.303
 3257W        W10659   4.638   8.844   7.895
 3258W        W10660  16.847   2.657   2.173
 3259W        W10661  10.511   9.330   1.699
 3260W        W10662   6.127   3.111   2.623
 3261W        W10663  10.513   5.980   0.252
 3262W        W10664  18.332   4.082   9.290
 3263W        W10665   8.554   5.480   8.847
 3264W        W10666  19.761   8.826   0.740
 3265W        W10667  18.308   5.954   7.900
 3266W        W10668   2.213   4.528   7.392
 3267W        W10669   2.695   8.834   0.242
 3268W        W10670   9.514   8.347   8.356
 3269W        W10671  12.466   4.553   2.656
 3270W        W10672  17.324   1.191   8.818
 3271W        W10673  19.784   2.184   8.852
 3272W        W10674   2.234   0.274   8.355
 3273W        W10675  11.481   3.130   9.332
 3274W        W10676  15.396   5.505   8.338
 3275W        W10677   9.522   6.927   9.288
 3276W        W10678   0.266   8.811   0.751
 3277W        W10679   3.194   9.287   1.706
 3278W        W10680  16.349   6.916   8.849
 3279W        W10681   1.714   0.735   8.811
 3280W        W10682   6.595   8.821   1.194
 3281W        W10683   8.096   3.587   1.227
 3282W        W10684  15.870   4.542   8.818
 3283W        W10685   2.206   6.914   1.670
 3284W        W10686  17.821   4.094   9.773
 3285W        W10687   6.629   3.104   9.323
 3286W        W10688   4.657   5.046   8.828
 3287W        W10689   0.289   5.034   1.228
 3288W        W10690  19.307   8.340   2.177
 3289W        W10691  14.920   2.148   8.832
 3290W        W10692   0.287   1.214   8.827
 3291W        W10693  18.325   7.399   8.849
 3292W        W10694   3.681   1.698   9.807
 3293W        W10695  14.895   9.778   1.210
 3294W        W10696  12.939   0.754   8.338
 3295W        W10697  18.818   1.694   2.167
 3296W        W10698  13.419   4.568   0.260
 3297W        W10699   3.683   4.527   8.358
 3298W        W10700   8.576   6.431   2.175
 3299W        W10701  11.006   3.132   7.896
 3300W        W10702  13.927   1.234   0.262
 3301W        W10703   3.185   0.265   0.738
 3302W        W10704  19.774   9.331   0.242
 3303W        W10705  11.993   3.608   1.683
 3304W        W10706   9.059   4.535   7.864
 3305W        W10707  11.013   2.145   8.360
 3306W        W10708  10.524   3.137   1.238
 3307W        W10709  14.406   9.763   2.145
 3308W        W10710  15.392   4.082   7.891
 3309W        W10711  11.988   4.551   9.766
 3310W        W10712   7.118   0.742   9.290
 3311W        W10713  18.820   5.977   1.192
 3312W        W10714  11.479   9.312   7.888
 3313W        W10715  11.963   8.841   9.764
 3314W        W10716   9.559   9.290   1.680
 3315W        W10717   8.567   9.778   7.873
 3316W        W10718  14.894   5.025   0.728
 3317W        W10719  18.334   3.597   2.160
 3318W        W10720  18.330   9.796   0.751
 3319W        W10721   2.201   0.258   1.235
 3320W        W10722  14.884   5.505   9.808
 3321W        W10723   9.560   2.148   0.725
 3322W        W10724   8.548   3.577   7.898
 3323W        W10725  11.506   6.456   0.240
 3324W        W10726   6.587   7.399   1.710
 3325W        W10727  13.945   5.966   0.247
 3326W        W10728  11.504   6.936   9.765
 3327W        W10729   2.203   1.689   8.839
 3328W        W10730   1.727   4.564   7.884
 3329W        W10731  13.915   1.217   9.768
 3330W        W10732   0.756   2.163   2.181
 3331W        W10733   9.515   5.974   8.376
 3332W        W10734  18.802   7.420   9.290
 3333W        W10735  12.476   6.916   0.238
 3334W        W10736   2.721   6.451   8.357
 3335W        W10737   3.176   0.715   1.202
 3336W        W10738  11.482   7.865   2.170
 3337W        W10739  11.472   9.809   0.718
 3338W        W10740   7.572   5.980   8.345
 3339W        W10741  17.853   9.287   7.868
 3340W        W10742  15.885   0.257   1.672
 3341W        W10743   5.148   9.303   9.324
 3342W        W10744  12.477   0.285   7.896
 3343W        W10745  14.421   9.319   7.892
 3344W        W10746   4.665   5.521   0.752
 3345W        W10747  13.920   5.508   7.411
 3346W        W10748  13.916   7.393   0.262
 3347W        W10749  18.309   5.957   1.672
 3348W        W10750   6.131   8.815   8.336
 3349W        W10751  15.405   6.914   9.762
 3350W        W10752  10.019   1.207   9.318
 3351W        W10753  10.047   6.431   9.331
 3352W        W10754  19.315   8.375   7.868
 3353W        W10755   1.740   7.399   8.372
 3354W        W10756  10.525   4.534   7.901
 3355W        W10757  19.286   9.327   9.785
 3356W        W10758   9.556   5.028   1.210
 3357W        W10759   6.630   8.855   0.716
 3358W        W10760  12.439   3.114   1.237
 3359W        W10761  19.788   5.956   7.887
 3360W        W10762   3.201   3.593   1.236
 3361W        W10763  10.509   5.504   9.309
 3362W        W10764   2.692   3.122   1.708
 3363W        W10765  15.855   6.945   9.322
 3364W        W10766  14.892   5.008   9.773
 3365W        W10767  18.797   4.571   1.696
 3366W        W10768   7.568   6.452   0.743
 3367W        W10769   7.596   5.983   8.834
 3368W        W10770  17.325   7.858   9.803
 3369W        W10771  16.831   8.378   9.802
 3370W        W10772   0.756   0.733   8.854
 3371W        W10773   4.194   0.731   8.839
 3372W        W10774  17.339   7.874   7.867
 3373W        W10775   5.626   7.393   8.822
 3374W        W10776  15.898   5.018   8.832
 3375W        W10777  19.295   5.017   9.808
 3376W        W10778   9.046   1.673   8.342
 3377W        W10779  12.450   3.599   7.894
 3378W        W10780   8.092   7.872   8.333
 3379W        W10781  15.368   6.946   1.692
 3380W        W10782   5.138   2.161   2.165
 3381W        W10783   6.610   4.570   0.282
 3382W        W10784   1.245   9.772   2.158
 3383W        W10785  16.871   1.193   1.702
 3384W        W10786   7.583   9.301   0.727
 3385W        W10787  19.311   0.719   0.278
 3386W        W10788   0.772   4.570   9.326
 3387W        W10789   8.049   0.736   1.218
 3388W        W10790   3.192   2.645   2.175
 3389W        W10791  15.386   3.597   1.199
 3390W        W10792   7.122   2.640   1.686
 3391W        W10793  12.454   6.435   2.173
 3392W        W10794  14.886   1.233   7.873
 3393W        W10795   4.640   0.282   2.146
 3394W        W10796  17.331   4.064   0.752
 3395W        W10797  12.452   6.916   1.694
 3396W        W10798   1.261   1.202   0.282
 3397W        W10799  17.848   0.271   9.766
 3398W        W10800   8.558   3.119   0.722
 3399W        W10801   0.263   1.198   9.313
 3400W        W10802   2.696   1.234   8.819
 3401W        W10803  17.845   4.073   1.200
 3402W        W10804  16.350   2.157   9.328
 3403W        W10805  13.948   8.850   0.747
 3404W        W10806   1.739   0.279   0.744
 3405W        W10807   8.558   2.164   8.853
 3406W        W10808   6.141   3.103   1.670
 3407W        W10809  17.362   0.273   9.764
 3408W        W10810  19.309   1.194   9.778
 3409W        W10811   0.244   0.734   7.861
 3410W        W10812  11.001   4.092   1.687
 3411W        W10813  16.833   7.901   2.151
 3412W        W10814   0.772   3.119   0.272
 3413W        W10815   9.049   2.657   9.325
 3414W        W10816  11.494   0.741   7.386
 3415W        W10817  18.824   5.003   1.211
 3416W        W10818  14.884   5.009   0.279
 3417W        W10819   7.114   2.189   7.881
 3418W        W10820   1.261   3.600   1.225
 3419W        W10821   0.268   7.393   1.215
 3420W        W10822  11.954   4.565   2.177
 3421W        W10823   9.523   5.035   9.785
 3422W        W10824  10.984   9.796   9.322
 3423W        W10825  16.872   1.691   8.369
 3424W        W10826  18.791   6.472   1.226
 3425W        W10827   5.644   2.662   0.739
 3426W        W10828   7.569   4.542   8.344
 3427W        W10829   3.189   5.488   8.346
 3428W        W10830   2.697   3.588   0.273
 3429W        W10831   5.149   4.061   7.859
 3430W        W10832   2.196   6.908   8.359
 3431W        W10833  16.359   2.179   1.192
 3432W        W10834  10.009   9.311   8.815
 3433W        W10835   4.192   6.441   8.852
 3434W        W10836   9.551   8.376   1.705
 3435W        W10837   8.582   8.335   7.892
 3436W        W10838  17.853   8.354   8.343
 3437W        W10839  10.506   6.909   8.371
 3438W        W10840   9.527   7.403   2.152
 3439W        W10841  16.366   8.835   1.234
 3440W        W10842  13.439   1.226   0.750
 3441W        W10843  11.012   8.833   2.178
 3442W        W10844  19.305   9.785   1.686
 3443W        W10845  10.508   3.595   9.312
 3444W        W10846  14.406   4.067   2.161
 3445W        W10847  18.321   0.275   9.774
 3446W        W10848  15.394   7.871   8.378
 3447W        W10849  10.993   2.162   8.822
 3448W        W10850  18.310   6.476   7.889
 3449W        W10851  15.868   3.103   1.685
 3450W        W10852  10.491   1.232   2.174
 3451W        W10853   2.690   1.676   8.823
 3452W        W10854   2.716   6.949   0.280
 3453W        W10855  15.897   7.878   8.851
 3454W        W10856  17.817   3.579   0.247
 3455W        W10857   3.214   3.609   0.274
 3456W        W10858   1.719   1.197   0.246
 3457W        W10859  17.335   1.203   1.673
 3458W        W10860  11.510   5.032   2.172
 3459W        W10861  18.336   5.001   8.373
 3460W        W10862   3.197   7.383   0.246
 3461W        W10863  18.293   8.362   9.317
 3462W        W10864  15.859   5.484   9.781
 3463W        W10865  16.848   2.627   1.694
 3464W        W10866  19.762   0.720   8.366
 3465W        W10867   5.161   9.305   0.732
 3466W        W10868   5.146   0.719   0.745
 3467W        W10869   4.645   8.353   2.662
 3468W        W10870  18.332   6.448   2.182
 3469W        W10871  17.825   1.708   0.258
 3470W        W10872   7.085   3.121   1.209
 3471W        W10873  10.011   2.628   0.243
 3472W        W10874   4.186   2.655   9.776
 3473W        W10875  18.818   9.333   0.282
 3474W        W10876   7.094   8.368   8.819
 3475W        W10877   7.577   2.649   1.230
 3476W        W10878   8.061   1.234   1.698
 3477W        W10879  18.829   2.621   9.800
 3478W        W10880  12.455   1.683   0.758
 3479W        W10881  16.360   9.791   1.209
 3480W        W10882  14.890   1.668   0.279
 3481W        W10883   5.642   5.986   1.231
 3482W        W10884  11.989   0.748   8.835
 3483W        W10885  15.377   7.411   8.836
 3484W        W10886   9.071   4.562   9.326
 3485W        W10887  12.458   1.224   8.368
 3486W        W10888  14.427   5.514   9.299
 3487W        W10889  10.495   3.117   8.369
 3488W        W10890  16.869   5.034   2.179
 3489W        W10891   7.095   3.614   0.714
 3490W        W10892  17.353   1.228   0.285
 3491W        W10893   8.566   8.816   8.374
 3492W        W10894   6.112   7.893   2.655
 3493W        W10895  11.496   8.817   1.220
 3494W        W10896  12.456   0.718   8.359
 3495W        W10897   6.593   1.698   9.305
 3496W        W10898   9.531   7.422   0.744
 3497W        W10899  11.995   4.073   1.678
 3498W        W10900   7.565   2.636   2.184
 3499W        W10901   5.619   5.040   1.681
 3500W        W10902  19.304   3.578   8.372
 3501W        W10903  10.507   0.737   2.158
 3502W        W10904  15.882   3.127   7.885
 3503W        W10905  12.941   7.387   0.265
 3504W        W10906   6.099   5.041   1.712
 3505W        W10907  12.952   2.172   1.706
 3506W        W10908   9.035   9.784   8.378
 3507W        W10909  18.303   7.881   2.145
 3508W        W10910   1.751   4.569   8.335
 3509W        W10911   6.121   9.314   1.699
 3510W        W10912  12.479   3.134   8.852
 3511W        W10913  19.784   9.292   7.404
 3512W        W10914  11.489   3.108   1.235
 3513W        W10915  17.331   5.508   8.359
 3514W        W10916   8.056   6.470   7.883
 3515W        W10917  12.446   5.008   2.166
 3516W        W10918  15.387   2.166   8.337
 3517W        W10919  19.314   7.403   9.294
 3518W        W10920   5.153   5.005   8.356
 3519W        W10921   9.044   8.349   0.718
 3520W        W10922   3.215   9.288   7.897
 3521W        W10923   7.587   9.319   9.775
 3522W        W10924   0.733   4.526   8.356
 3523W        W10925  14.908   1.714   0.731
 3524W        W10926   7.112   3.599   7.895
 3525W        W10927  10.027   7.869   0.250
 3526W        W10928  14.427   8.380   1.226
 3527W        W10929   8.541   5.030   1.195
 3528W        W10930   9.037   3.101   2.634
 3529W        W10931  14.914   5.959   7.888
 3530W        W10932   6.109   3.610   8.824
 3531W        W10933  14.422   8.362   9.785
 3532W        W10934   2.239   1.685   2.641
 3533W        W10935   9.533   6.944   0.759
 3534W        W10936  10.977   1.217   0.251
 3535W        W10937   1.721   6.930   0.277
 3536W        W10938  10.007   7.884   2.182
 3537W        W10939   7.121   0.284   9.778
 3538W        W10940   2.697   9.317   9.332
 3539W        W10941   0.734   0.732   2.168
 3540W        W10942  14.407   5.954   7.864
 3541W        W10943   5.168   0.272   0.263
 3542W        W10944   9.068   4.054   7.859
 3543W        W10945   1.223   5.020   0.273
 3544W        W10946  10.514   3.605   7.887
 3545W        W10947  17.335   5.991   0.758
 3546W        W10948   1.259   2.153   1.679
 3547W        W10949   1.254   8.824   2.170
 3548W        W10950   4.669   9.304   0.270
 3549W        W10951  16.841   3.602   9.303
 3550W        W10952  15.401   6.476   1.232
 3551W        W10953  18.318   4.552   9.794
 3552W        W10954   0.250   5.487   2.156
 3553W        W10955   6.633   9.776   0.744
 3554W        W10956  10.521   4.063   1.238
 3555W        W10957   2.723   0.247   8.377
 3556W        W10958   9.522   7.423   1.227
 3557W        W10959   2.704   2.623   9.782
 3558W        W10960  19.290   2.625   7.419
 3559W        W10961   5.626   8.355   9.775
 3560W        W10962  17.829   5.004   2.152
 3561W        W10963  12.471   3.614   2.629
 3562W        W10964   1.744   2.178   1.676
 3563W        W10965  11.467   1.678   7.397
 3564W        W10966  15.370   8.340   0.757
 3565W        W10967  19.768   9.312   2.159
 3566W        W10968  13.443   9.780   0.736
 3567W        W10969  17.346   4.050   2.143
 3568W        W10970   9.047   3.606   2.160
 3569W        W10971   4.645   1.223   0.747
 3570W        W10972   4.653   4.548   9.310
 3571W        W10973   5.130   7.394   1.210
 3572W        W10974  12.953   2.636   9.791
 3573W        W10975   7.602   9.801   0.723
 3574W        W10976   3.186   4.064   8.358
 3575W        W10977  13.939   9.314   8.359
 3576W        W10978  17.836   0.256   1.686
 3577W        W10979  11.475   2.145   9.785
 3578W        W10980   4.641   4.550   8.818
 3579W        W10981   6.611   7.388   9.310
 3580W        W10982  12.471   3.616   1.694
 3581W        W10983  18.803   3.097   7.420
 3582W        W10984  18.307   6.935   2.146
 3583W        W10985  17.354   3.106   0.260
 3584W        W10986  10.017   6.440   7.873
 3585W        W10987   0.285   2.185   7.875
 3586W        W10988  17.350   0.728   7.866
 3587W        W10989  17.348   4.564   8.850
 3588W        W10990  17.348   3.101   8.828
 3589W        W10991   9.554   8.854   0.244
 3590W        W10992   3.695   2.177   8.347
 3591W        W10993  13.424   9.808   1.681
 3592W        W10994   7.582   6.445   8.338
 3593W        W10995  10.018   3.136   2.658
 3594W        W10996   2.727   8.811   9.783
 3595W        W10997   9.035   3.123   8.815
 3596W        W10998  14.907   5.005   7.866
 3597W        W10999  16.344   2.179   0.725
 3598W        W11000   2.726   4.092   1.700
 3599W        W11001  12.451   7.897   9.327
 3600W        W11002  13.944   7.879   0.735
 3601W        W11003  13.904   3.139   9.808
 3602W        W11004  18.323   8.837   1.209
 3603W        W11005  12.935   4.082   8.346
 3604W        W11006  13.930   5.041   8.369
 3605W        W11007   8.577   9.780   1.688
 3606W        W11008   6.590   2.643   1.710
 3607W        W11009  11.506   9.321   8.833
 3608W        W11010  14.404   8.341   1.686
 3609W        W11011  17.810   9.329   9.794
 3610W        W11012  12.478   9.798   8.856
 3611W        W11013  18.296   1.677   0.257
 3612W        W11014   1.262   0.733   0.246
 3613W        W11015   1.723   0.750   1.205
 3614W        W11016   1.252   1.685   1.679
 3615W        W11017  17.349   6.463   1.684
 3616W        W11018   5.647   9.301   0.750
 3617W        W11019   0.768   8.353   7.890
 3618W        W11020   4.665   8.815   0.269
 3619W        W11021  16.367   2.649   2.153
 3620W        W11022  11.016   0.256   9.301
 3621W        W11023   5.629   1.713   9.794
 3622W        W11024  10.524   9.332   9.808
 3623W        W11025  11.490   6.940   7.421
 3624W        W11026  10.528   5.011   2.161
 3625W        W11027  18.322   6.455   8.830
 3626W        W11028   8.552   6.432   7.899
 3627W        W11029   9.555   3.583   8.367
 3628W        W11030   7.568   6.925   9.328
 3629W        W11031   7.583   0.274   7.902
 3630W        W11032   2.688   1.692   1.713
 3631W        W11033   8.549   5.965   8.370
 3632W        W11034  10.495   3.132   2.165
 3633W        W11035  18.819   3.104   9.772
 3634W        W11036   5.619   5.044   0.748
 3635W        W11037   0.768   8.353   2.145
 3636W        W11038   4.649   5.982   9.332
 3637W        W11039  12.475   6.467   1.699
 3638W        W11040  10.522   1.203   7.887
 3639W        W11041  10.012   4.555   2.179
 3640W        W11042   4.652   6.943   0.275
 3641W        W11043   2.705   0.731   9.798
 3642W        W11044   0.277   0.270   0.715
 3643W        W11045   0.778   4.058   8.819
 3644W        W11046   7.075   9.797   1.702
 3645W        W11047   7.082   7.414   7.859
 3646W        W11048  13.436   2.622   0.267
 3647W        W11049  18.807   8.375   8.819
 3648W        W11050   8.546   9.290   8.813
 3649W        W11051  11.967   4.543   9.323
 3650W        W11052  17.829   5.488   1.698
 3651W        W11053  19.771   8.834   2.162
 3652W        W11054  15.390   5.988   8.842
 3653W        W11055   7.605   8.827   2.149
 3654W        W11056  19.314   5.036   0.260
 3655W        W11057  12.462   3.590   0.752
 3656W        W11058   0.747   4.543   0.737
 3657W        W11059  12.459   1.212   1.671
 3658W        W11060  12.957   0.724   7.418
 3659W        W11061   2.686   1.221   1.230
 3660W        W11062   4.191   4.556   8.834
 3661W        W11063   1.248   8.353   0.267
 3662W        W11064   2.718   3.592   8.835
 3663W        W11065  16.349   7.878   1.709
 3664W        W11066  18.810   2.180   8.345
 3665W        W11067   4.668   2.177   8.351
 3666W        W11068   2.205   1.678   7.900
 3667W        W11069  10.049   6.442   0.758
 3668W        W11070  18.784   9.796   8.358
 3669W        W11071  10.499   5.039   0.735
 3670W        W11072   3.214   9.320   2.189
 3671W        W11073  18.297   6.913   1.689
 3672W        W11074   8.096   7.412   1.225
 3673W        W11075  15.902   9.287   9.315
 3674W        W11076  10.508   2.661   8.347
 3675W        W11077   6.122   0.243   8.835
 3676W        W11078  19.785   9.790   2.168
 3677W        W11079   5.126   8.374   0.250
 3678W        W11080  14.392   4.053   8.370
 3679W        W11081  14.919   4.080   8.355
 3680W        W11082   6.140   8.844   0.721
 3681W        W11083   8.577   0.761   1.207
 3682W        W11084  11.007   2.639   9.289
 3683W        W11085  19.307   0.728   7.391
 3684W        W11086   8.538   8.377   7.419
 3685W        W11087  18.820   9.298   2.162
 3686W        W11088   6.104   7.414   2.661
 3687W        W11089  19.298   8.820   0.729
 3688W        W11090   0.285   2.176   0.265
 3689W        W11091  12.472   6.908   2.665
 3690W        W11092  14.899   4.087   0.723
 3691W        W11093   5.623   6.932   9.322
 3692W        W11094   9.063   7.886   2.156
 3693W        W11095   3.178   7.895   9.305
 3694W        W11096  10.021   7.395   9.293
 3695W        W11097   3.661   1.199   1.211
 3696W        W11098  17.322   5.003   8.852
 3697W        W11099  12.480   8.823   1.211
 3698W        W11100   8.564   1.200   9.301
 3699W        W11101  13.432   9.785   8.355
 3700W        W11102   7.609   1.669   1.675
 3701W        W11103   3.189   6.925   8.344
 3702W        W11104  14.422   8.334   9.325
 3703W        W11105  19.315   1.219   7.886
 3704W        W11106   0.779   4.527   8.834
 3705W        W11107  16.388   1.674   0.264
 3706W        W11108   9.035   7.887   1.222
 3707W        W11109   1.748   2.623   8.360
 3708W        W11110   0.753   2.620   9.287
 3709W        W11111   2.206   1.688   9.289
 3710W        W11112  15.377   1.710   9.304
 3711W        W11113  13.921   2.144   7.877
 3712W        W11114  13.917   1.218   0.745
 3713W        W11115  14.917   8.346   2.172
 3714W        W11116   5.632   7.893   7.387
 3715W        W11117   7.076   9.327   9.332
 3716W        W11118  17.818   0.267   1.220
 3717W        W11119   8.545   6.912   0.265
 3718W        W11120  10.505   6.468   1.224
 3719W        W11121   8.552   6.441   1.204
 3720W        W11122   0.763   9.778   0.266
 3721W        W11123   1.255   2.189   9.762
 3722W        W11124  19.805   9.303   1.707
 3723W        W11125   4.158   4.051   9.332
 3724W        W11126   1.712   4.066   0.756
 3725W        W11127  12.447   5.969   8.831
 3726W        W11128   2.236   4.541   7.896
 3727W        W11129   9.044   3.119   0.736
 3728W        W11130  17.331   5.969   0.268
 3729W        W11131   4.193   3.572   0.760
 3730W        W11132  13.909   3.589   9.781
 3731W        W11133   6.622   5.001   9.286
 3732W        W11134   7.582   5.476   7.878
 3733W        W11135  18.313   0.240   8.340
 3734W        W11136   5.626   0.257   0.263
 3735W        W11137   6.621   8.360   0.735
 3736W        W11138   8.069   1.214   9.785
 3737W        W11139   5.153   3.117   2.153
 3738W        W11140   6.131   4.081   8.814
 3739W        W11141  13.949   5.970   0.757
 3740W        W11142   7.091   7.870   9.782
 3741W        W11143  15.368   7.881   2.189
 3742W        W11144  14.419   3.609   8.848
 3743W        W11145   0.736   6.473   0.280
 3744W        W11146   4.179   1.709   2.185
 3745W        W11147   3.203   8.848   1.685
 3746W        W11148   6.108   2.637   2.184
 3747W        W11149  10.509   0.242   9.327
 3748W        W11150  17.350   1.667   8.853
 3749W        W11151  10.007   2.640   1.213
 3750W        W11152  18.824   1.679   1.707
 3751W        W11153   9.519   4.532   9.299
 3752W        W11154  11.474   8.372   7.859
 3753W        W11155  13.438   8.841   9.766
 3754W        W11156  14.405   9.316   0.743
 3755W        W11157   4.189   4.062   8.837
 3756W        W11158  19.766   4.062   0.250
 3757W        W11159  19.792   0.240   9.792
 3758W        W11160  17.343   2.151   8.337
 3759W        W11161   5.165   3.594   8.822
 3760W        W11162   4.168   5.958   9.301
 3761W        W11163   0.739   8.841   0.243
 3762W        W11164  14.919   2.655   9.767
 3763W        W11165   5.618   7.418   1.712
 3764W        W11166  18.827   9.779   1.685
 3765W        W11167  15.870   0.260   8.380
 3766W        W11168   1.729   5.985   8.849
 3767W        W11169   9.033   4.534   1.233
 3768W        W11170  13.434   6.460   1.204
 3769W        W11171  11.498   8.343   1.205
 3770W        W11172  13.415   1.704   8.337
 3771W        W11173   9.516   9.787   9.808
 3772W        W11174   8.070   7.398   9.327
 3773W        W11175   8.556   3.588   1.701
 3774W        W11176  19.793   3.586   9.788
 3775W        W11177   0.757   5.019   7.384
 3776W        W11178  10.529   4.524   9.333
 3777W        W11179  12.973   9.801   0.285
 3778W        W11180   7.091   9.769   2.176
 3779W        W11181   0.767   5.956   0.758
 3780W        W11182   9.030   1.698   1.235
 3781W        W11183  12.447   0.747   9.799
 3782W        W11184   5.158   2.166   7.882
 3783W        W11185  16.381   5.975   1.713
 3784W        W11186   5.135   5.992   0.268
 3785W        W11187   8.085   5.976   0.747
 3786W        W11188  14.882   0.730   2.170
 3787W        W11189   5.632   5.521   1.670
 3788W        W11190   1.737   9.295   0.283
 3789W        W11191   2.696   9.304   2.166
 3790W        W11192  14.893   0.254   9.772
 3791W        W11193   1.708   1.698   7.902
 3792W        W11194  10.531   1.714   1.227
 3793W        W11195   3.214   0.743   0.246
 3794W        W11196  18.807   8.369   0.278
 3795W        W11197  14.391   0.267   0.715
 3796W        W11198   1.267   4.562   7.418
 3797W        W11199  11.971   2.149   8.816
 3798W        W11200  10.979   7.900   0.719
 3799W        W11201   0.762   6.926   0.742
 3800W        W11202   4.639   4.083   9.319
 3801W        W11203   0.282   7.879   8.338
 3802W        W11204   3.196   3.114   0.727
 3803W        W11205   2.240   0.757   8.335
 3804W        W11206  19.273   9.332   1.680
 3805W        W11207  16.359   6.431   7.902
 3806W        W11208   7.120   1.677   1.217
 3807W        W11209   1.260   3.130   9.318
 3808W        W11210  16.364   7.879   0.725
 3809W        W11211   1.745   7.403   8.852
 3810W        W11212   6.125   0.740   7.885
 3811W        W11213   4.152   1.238   1.191
 3812W        W11214   5.617   3.124   0.721
 3813W        W11215   5.147   3.578   9.765
 3814W        W11216  12.972   6.430   9.297
 3815W        W11217  12.454   8.816   7.872
 3816W        W11218  19.304   5.498   7.892
 3817W        W11219   0.245   2.162   0.755
 3818W        W11220   9.050   8.376   1.237
 3819W        W11221  19.801   4.076   2.184
 3820W        W11222   5.657   6.905   9.773
 3821W        W11223   2.724   8.840   9.330
 3822W        W11224   2.219   9.299   1.209
 3823W        W11225   5.159   2.154   8.828
 3824W        W11226  15.395   7.402   7.894
 3825W        W11227   2.209   7.387   7.889
 3826W        W11228  10.502   6.911   9.807
 3827W        W11229  18.294   8.335   2.182
 3828W        W11230  17.834   0.726   1.212
 3829W        W11231   7.120   0.757   2.657
 3830W        W11232   5.126   1.688   9.793
 3831W        W11233   4.156   2.650   2.155
 3832W        W11234  17.321   9.791   8.830
 3833W        W11235  10.026   2.660   9.293
 3834W        W11236   9.052   8.815   0.735
 3835W        W11237  15.373   0.269   9.331
 3836W        W11238   6.588   5.954   0.751
 3837W        W11239   1.247   8.853   0.716
 3838W        W11240   9.066   9.780   1.674
 3839W        W11241   9.525   0.283   8.361
 3840W        W11242  10.037   1.671   2.148
 3841W        W11243  18.800   3.130   1.217
 3842W        W11244  11.468   1.220   2.143
 3843W        W11245  14.396   2.631   9.783
 3844W        W11246   9.541   0.751   1.234
 3845W        W11247   6.605   6.440   7.868
 3846W        W11248   5.621   1.202   1.219
 3847W        W11249  10.028   8.816   0.751
 3848W        W11250  19.311   0.760   9.321
 3849W        W11251   6.620   9.780   2.179
 3850W        W11252  19.288   3.116   7.414
 3851W        W11253  12.941   2.149   9.299
 3852W        W11254   8.067   5.503   1.712
 3853W        W11255  16.374   6.936   1.673
 3854W        W11256  18.818   6.474   0.756
 3855W        W11257  15.884   0.724   9.326
 3856W        W11258   4.649   3.118   9.801
 3857W        W11259  10.491   3.572   8.343
 3858W        W11260   1.752   5.521   0.244
 3859W        W11261  10.492   7.388   9.804
 3860W        W11262   0.288   8.351   1.219
 3861W        W11263  11.966   7.876   7.871
 3862W        W11264   9.529   0.261   8.853
 3863W        W11265  17.358   8.374   9.786
 3864W        W11266  14.403   6.950   8.353
 3865W        W11267  10.535   6.431   0.726
 3866W        W11268   9.533   3.577   0.739
 3867W        W11269   3.672   6.924   0.239
 3868W        W11270   0.254   7.410   8.380
 3869W        W11271  13.930   1.702   8.365
 3870W        W11272  11.004   6.475   9.765
 3871W        W11273  11.490   6.439   2.184
 3872W        W11274   1.711   2.151   8.846
 3873W        W11275  10.009   4.060   0.280
 3874W        W11276  13.903   3.611   1.711
 3875W        W11277   7.561   4.562   0.754
 3876W        W11278   5.138   8.363   0.745
 3877W        W11279  16.874   9.311   2.632
 3878W        W11280   3.199   1.197   9.328
 3879W        W11281   0.283   0.731   0.751
 3880W        W11282   2.238   3.606   9.325
 3881W        W11283  10.017   7.424   2.174
 3882W        W11284  13.929   8.366   1.217
 3883W        W11285  16.358   0.282   9.321
 3884W        W11286   4.178   4.072   0.731
 3885W        W11287   4.668   7.892   1.207
 3886W        W11288   5.146   8.348   9.764
 3887W        W11289   4.180   7.866   9.288
 3888W        W11290  17.837   8.836   0.749
 3889W        W11291   7.102   4.553   0.273
 3890W        W11292  12.454   1.219   8.822
 3891W        W11293  13.423   1.223   1.202
 3892W        W11294   5.130   2.641   1.686
 3893W        W11295   7.082   4.068   1.202
 3894W        W11296  13.917   7.868   2.182
 3895W        W11297   0.760   6.464   1.681
 3896W        W11298  13.432   7.875   0.749
 3897W        W11299  11.499   7.416   9.287
 3898W        W11300  19.274   6.920   1.706
 3899W        W11301  11.005   8.345   9.322
 3900W        W11302  11.469   8.814   8.836
 3901W        W11303   0.768   6.919   9.325
 3902W        W11304   4.189   9.312   0.741
 3903W        W11305   8.069   7.878   0.267
 3904W        W11306   9.548   2.627   0.245
 3905W        W11307  16.851   9.314   1.229
 3906W        W11308  15.407   8.828   9.785
 3907W        W11309  16.343   8.852   1.686
 3908W        W11310  12.459   2.621   9.767
 3909W        W11311   3.684   4.541   0.245
 3910W        W11312   3.218   5.959   7.870
 3911W        W11313   2.707   9.298   8.357
 3912W        W11314   0.766   4.548   1.690
 3913W        W11315  11.493   5.487   1.195
 3914W        W11316  11.482   6.922   1.713
 3915W        W11317  13.939   7.408   9.326
 3916W        W11318  16.357   3.598   1.686
 3917W        W11319   6.124   5.000   8.357
 3918W        W11320  18.819   3.585   8.377
 3919W        W11321  13.918   5.968   9.318
 3920W        W11322  11.508   1.696   8.379
 3921W        W11323  10.034   3.139   9.307
 3922W        W11324   7.091   5.504   7.865
 3923W        W11325   6.616   5.510   0.756
 3924W        W11326  10.009   1.686   0.257
 3925W        W11327   3.685   7.402   8.368
 3926W        W11328  18.318   5.977   9.307
 3927W        W11329  19.800   3.617   7.885
 3928W        W11330   8.574   4.066   8.845
 3929W        W11331  15.897   5.498   0.758
 3930W        W11332  17.333   5.034   0.732
 3931W        W11333  15.863   8.371   8.840
 3932W        W11334  16.863   5.018   9.295
 3933W        W11335   5.140   5.966   9.290
 3934W        W11336  14.916   3.582   2.177
 3935W        W11337   8.097   8.371   0.747
 3936W        W11338  18.807   5.961   0.745
 3937W        W11339  18.309   1.670   2.153
 3938W        W11340  18.302   5.955   8.854
 3939W        W11341  11.015   6.449   8.838
 3940W        W11342   1.231   7.868   8.334
 3941W        W11343   4.682   5.515   7.869
 3942W        W11344  15.876   9.292   8.811
 3943W        W11345  17.852   6.946   8.857
 3944W        W11346   0.774   7.868   1.221
 3945W        W11347  19.270   6.443   0.258
 3946W        W11348  11.470   4.060   1.699
 3947W        W11349   3.698   9.767   9.785
 3948W        W11350   0.247   0.745   1.235
 3949W        W11351  10.028   5.977   2.143
 3950W        W11352  11.960   1.672   9.300
 3951W        W11353  10.014   9.295   7.864
 3952W        W11354  17.846   8.833   2.630
 3953W        W11355   1.746   7.882   1.705
 3954W        W11356  19.301   6.437   1.676
 3955W        W11357  14.424   1.677   0.734
 3956W        W11358   2.213   3.610   0.269
 3957W        W11359  13.415   0.269   7.866
 3958W        W11360   1.255   3.126   1.674
 3959W        W11361  14.426   7.878   9.308
 3960W        W11362   3.694   5.044   0.714
 3961W        W11363   6.618   2.623   8.815
 3962W        W11364  14.411   1.216   9.789
 3963W        W11365   9.532   6.449   9.325
 3964W        W11366  12.961   8.826   8.813
 3965W        W11367  12.454   4.075   9.320
 3966W        W11368   1.221   6.434   7.894
 3967W        W11369   4.656   9.774   8.353
 3968W        W11370   6.613   1.703   9.778
 3969W        W11371  13.925   6.932   9.311
 3970W        W11372   5.633   5.962   0.260
 3971W        W11373  15.896   1.191   9.293
 3972W        W11374  10.984   2.632   7.890
 3973W        W11375   8.097   7.875   1.713
 3974W        W11376  11.464   7.889   2.627
 3975W        W11377  18.315   3.127   8.849
 3976W        W11378   2.199   3.125   2.178
 3977W        W11379   9.546   8.337   1.210
 3978W        W11380  17.345   3.099   9.317
 3979W        W11381   9.523   3.137   1.221
 3980W        W11382   5.142   4.555   0.741
 3981W        W11383   5.159   3.607   1.685
 3982W        W11384  14.892   3.110   7.860
 3983W        W11385   8.078   2.625   1.683
 3984W        W11386  17.826   0.715   2.637
 3985W        W11387   4.640   1.667   9.295
 3986W        W11388  16.381   9.782   8.812
 3987W        W11389  16.365   0.250   0.746
 3988W        W11390  13.934   1.193   1.219
 3989W        W11391  17.364   2.633   8.823
 3990W        W11392   2.200   6.946   9.321
 3991W        W11393  12.956   1.208   8.355
 3992W        W11394   0.770   5.502   2.179
 3993W        W11395  16.373   3.586   1.193
 3994W        W11396  13.430   0.754   8.347
 3995W        W11397  10.994   3.588   0.734
 3996W        W11398   9.072   3.098   0.264
 3997W        W11399   9.522   6.908   8.821
 3998W        W11400  18.813   2.173   2.165
 3999W        W11401   0.748   9.784   1.668
 4000W        W11402  11.503   4.049   2.187
 4001W        W11403  12.932   5.971   9.762
 4002W        W11404   8.565   2.664   8.372
 4003W        W11405   3.200   4.530   0.247
 4004W        W11406   9.037   5.047   1.684
 4005W        W11407  18.791   3.594   1.191
 4006W        W11408   9.560   1.668   0.278
 4007W        W11409  18.782   4.528   2.154
 4008W        W11410  15.384   4.552   1.709
 4009W        W11411   9.062   4.554   0.254
 4010W        W11412   4.671   7.426   0.749
 4011W        W11413  19.278   4.568   7.874
 4012W        W11414   2.715   2.163   8.369
 4013W        W11415   7.107   5.022   7.884
 4014W        W11416  18.785   0.245   2.159
 4015W        W11417   4.163   9.791   9.325
 4016W        W11418   1.239   5.961   0.254
 4017W        W11419   6.108   9.322   9.766
 4018W        W11420  17.849   0.736   9.795
 4019W        W11421  19.796   5.034   9.795
 4020W        W11422  15.881   8.819   0.269
 4021W        W11423  18.820   0.735   1.688
 4022W        W11424   8.096   3.117   0.262
 4023W        W11425   7.580   4.054   2.172
 4024W        W11426  13.453   8.346   1.196
 4025W        W11427  12.950   1.688   2.173
 4026W        W11428  15.386   9.773   8.379
 4027W        W11429  10.517   8.373   1.233
 4028W        W11430   0.262   4.543   9.786
 4029W        W11431   4.679   8.841   9.311
 4030W        W11432   6.110   6.442   2.190
 4031W        W11433  10.521   6.447   8.370
 4032W        W11434   3.188   8.816   9.790
 4033W        W11435   4.172   2.158   0.285
 4034W        W11436   3.196   8.365   9.787
 4035W        W11437   5.166   4.563   9.772
 4036W        W11438  12.482   0.749   8.821
 4037W        W11439   5.650   0.266   9.328
 4038W        W11440   1.730   1.233   1.692
 4039W        W11441  12.483   1.198   9.327
 4040W        W11442   6.600   8.377   8.848
 4041W        W11443  14.423   3.572   1.691
 4042W        W11444  17.853   7.415   8.828
 4043W        W11445   2.218   5.958   9.294
 4044W        W11446  10.535   1.206   9.766
 4045W        W11447  10.039   7.889   8.349
 4046W        W11448   5.151   0.742   7.877
 4047W        W11449   1.729   1.194   9.317
 4048W        W11450  13.447   7.407   8.337
 4049W        W11451  19.798   5.013   8.842
 4050W        W11452  19.283   8.810   7.887
 4051W        W11453   0.287   9.314   9.780
 4052W        W11454   7.093   5.500   1.236
 4053W        W11455  14.402   7.861   9.776
 4054W        W11456   2.243   6.948   7.867
 4055W        W11457  12.478   2.636   2.190
 4056W        W11458   0.270   6.920   0.240
 4057W        W11459   5.145   1.220   9.775
 4058W        W11460  10.980   4.568   9.290
 4059W        W11461   7.083   9.330   2.165
 4060W        W11462  14.926   4.065   8.811
 4061W        W11463  19.801   5.987   0.283
 4062W        W11464  13.912   3.607   0.245
 4063W        W11465  19.291   3.098   1.690
 4064W        W11466  12.934   3.124   8.337
 4065W        W11467  11.488   1.696   1.227
 4066W        W11468  16.862   5.502   7.897
 4067W        W11469  15.892   4.069   9.317
 4068W        W11470   9.047   4.088   9.286
 4069W        W11471   3.678   5.478   8.834
 4070W        W11472  16.347   2.145   8.844
 4071W        W11473   1.250   5.514   7.883
 4072W        W11474   3.181   6.429   9.770
 4073W        W11475  13.946   0.251   8.362
 4074W        W11476   6.608   4.552   1.714
 4075W        W11477  12.941   7.877   2.631
 4076W        W11478  11.479   5.987   8.338
 4077W        W11479   3.680   6.431   2.185
 4078W        W11480   2.236   6.462   8.335
 4079W        W11481   3.214   1.229   1.229
 4080W        W11482   5.658   4.549   0.726
 4081W        W11483  13.939   9.298   9.763
 4082W        W11484  19.764   9.328   7.875
 4083W        W11485   1.722   3.137   8.816
 4084W        W11486  10.026   6.916   0.753
 4085W        W11487   6.127   2.189   0.282
 4086W        W11488   5.140   5.007   1.205
 4087W        W11489   9.051   3.098   9.800
 4088W        W11490   5.133   5.501   7.401
 4089W        W11491   6.626   7.428   0.281
 4090W        W11492   5.133   9.795   1.679
 4091W        W11493  14.894   9.320   7.412
 4092W        W11494  14.925   4.063   1.206
 4093W        W11495   2.683   7.900   2.161
 4094W        W11496  14.394   6.441   1.699
 4095W        W11497   4.668   8.826   8.357
 4096W        W11498  16.865   3.575   1.706
 4097W        W11499   6.614   8.348   8.352
 4098W        W11500  18.303   6.935   0.262
 4099W        W11501  12.966   4.540   2.152
 4100W        W11502   9.048   5.008   1.226
 4101W        W11503  14.429   4.058   9.805
 4102W        W11504   3.192   7.381   1.689
 4103W        W11505  12.485   8.836   8.361
 4104W        W11506  12.949   9.316   1.224
 4105W        W11507   6.136   6.947   7.870
 4106W        W11508  13.421   6.434   9.766
 4107W        W11509   9.053   9.315   8.836
 4108W        W11510  16.851   8.366   0.270
 4109W        W11511  10.022   7.861   9.806
 4110W        W11512   1.714   1.692   2.149
 4111W        W11513   2.731   0.258   7.889
 4112W        W11514  14.881   9.326   1.699
 4113W        W11515   9.560   5.504   8.841
 4114W        W11516  13.937   5.035   1.688
 4115W        W11517   1.721   2.623   1.193
 4116W        W11518  14.420   7.866   8.832
 4117W        W11519  11.964   1.700   1.713
 4118W        W11520   8.572   6.432   0.276
 4119W        W11521   9.539   9.794   1.220
 4120W        W11522  11.506   5.974   1.225
 4121W        W11523  15.868   0.255   0.751
 4122W        W11524   3.705   7.428   0.746
 4123W        W11525  16.343   1.680   2.169
 4124W        W11526  12.442   4.568   7.869
 4125W        W11527  15.871   7.900   2.170
 4126W        W11528   6.120   7.390   1.232
 4127W        W11529   1.738   8.345   1.680
 4128W        W11530   6.629   9.296   9.773
 4129W        W11531  14.925   9.791   0.741
 4130W        W11532  10.997   3.619   1.237
 4131W        W11533  18.790   1.673   8.371
 4132W        W11534  17.331   8.356   1.195
 4133W        W11535   3.191   7.421   2.151
 4134W        W11536   3.173   8.835   8.380
 4135W        W11537  15.883   0.240   8.836
 4136W        W11538  19.796   3.114   1.673
 4137W        W11539   3.661   5.496   1.201
 4138W        W11540   3.702   1.211   1.680
 4139W        W11541  11.473   5.045   0.278
 4140W        W11542  19.761   8.344   1.203
 4141W        W11543  11.492   4.537   2.182
 4142W        W11544   2.242   2.177   2.666
 4143W        W11545   6.624   0.264   1.199
 4144W        W11546  12.939   9.794   1.701
 4145W        W11547   7.095   1.676   9.329
 4146W        W11548  14.893   0.757   7.861
 4147W        W11549  13.463   8.818   0.720
 4148W        W11550  17.837   6.461   2.183
 4149W        W11551  19.271   1.233   1.227
 4150W        W11552  16.838   8.819   8.369
 4151W        W11553   5.169   7.861   2.174
 4152W        W11554  17.823   5.519   0.740
 4153W        W11555  18.816   5.477   1.673
 4154W        W11556   4.184   6.931   9.309
 4155W        W11557   1.257   6.909   0.253
 4156W        W11558  14.905   5.023   2.165
 4157W        W11559  11.493   5.986   1.703
 4158W        W11560  10.534   5.960   0.736
 4159W        W11561  10.529   1.678   9.790
 4160W        W11562  11.475   0.254   9.769
 4161W        W11563  19.789   4.527   9.293
 4162W        W11564  19.303   2.168   8.829
 4163W        W11565   9.025   1.197   8.369
 4164W        W11566  14.425   4.536   8.817
 4165W        W11567   3.216   3.118   1.676
 4166W        W11568  19.796   5.001   0.241
 4167W        W11569   8.546   5.959   0.271
 4168W        W11570   5.160   4.556   0.259
 4169W        W11571   6.107   7.882   7.873
 4170W        W11572  10.026   9.310   0.746
 4171W        W11573  19.301   1.704   7.900
 4172W        W11574   1.239   3.107   0.739
 4173W        W11575   4.641   3.126   1.215
 4174W        W11576   1.726   6.431   9.795
 4175W        W11577   4.160   3.600   8.832
 4176W        W11578   5.633   5.522   7.901
 4177W        W11579  17.338   7.893   0.732
 4178W        W11580  16.356   5.029   2.625
 4179W        W11581   0.291   9.796   0.269
 4180W        W11582  13.918   4.554   0.264
 4181W        W11583  18.329   6.474   8.351
 4182W        W11584   7.603   5.494   0.739
 4183W        W11585   5.621   8.335   8.351
 4184W        W11586  10.046   4.543   8.374
 4185W        W11587  15.405   4.544   1.236
 4186W        W11588   3.662   8.842   1.210
 4187W        W11589  19.269   5.959   9.319
 4188W        W11590  11.961   4.077   8.845
 4189W        W11591   1.739   5.002   2.182
 4190W        W11592   6.629   3.120   8.375
 4191W        W11593   3.700   7.423   1.693
 4192W        W11594   3.179   9.319   1.218
 4193W        W11595   7.606   2.159   9.304
 4194W        W11596  13.423   5.967   0.270
 4195W        W11597   3.189   4.555   1.692
 4196W        W11598   5.644   7.383   7.420
 4197W        W11599   8.052   8.821   9.803
 4198W        W11600   0.256   8.834   2.170
 4199W        W11601  12.472   4.546   0.240
 4200W        W11602  17.324   4.530   7.903
 4201W        W11603   9.546   1.676   2.165
 4202W        W11604   4.661   5.973   7.883
 4203W        W11605  19.780   0.755   0.760
 4204W        W11606  11.985   0.275   2.182
 4205W        W11607  16.852   2.622   0.729
 4206W        W11608  18.781   5.988   7.892
 4207W        W11609  13.919   2.650   8.818
 4208W        W11610   9.526   5.008   0.261
 4209W        W11611  15.884   2.165   8.353
 4210W        W11612   9.561   6.457   7.894
 4211W        W11613  10.488   3.097   9.783
 4212W        W11614   4.156   9.769   9.793
 4213W        W11615  11.977   3.599   1.215
 4214W        W11616  19.281   7.894   1.697
 4215W        W11617   2.683   4.050   0.259
 4216W        W11618   3.205   2.659   1.704
 4217W        W11619  13.422   3.131   2.188
 4218W        W11620   0.278   9.765   0.749
 4219W        W11621   0.261   4.540   0.721
 4220W        W11622   8.585   8.361   2.185
 4221W        W11623  15.879   4.070   0.733
 4222W        W11624   8.052   8.336   2.146
 4223W        W11625  10.996   2.144   7.867
 4224W        W11626  10.513   4.060   8.380
 4225W        W11627  10.040   4.532   7.425
 4226W        W11628  11.985   7.401   2.177
 4227W        W11629  12.448   6.441   1.217
 4228W        W11630  12.453   5.011   8.814
 4229W        W11631   5.129   1.699   1.693
 4230W        W11632  12.944   3.114   9.796
 4231W        W11633   3.171   2.164   1.199
 4232W        W11634   2.722   4.065   8.357
 4233W        W11635  19.804   1.670   9.781
 4234W        W11636  12.444   2.633   0.727
 4235W        W11637   2.232   9.324   9.298
 4236W        W11638  11.496   4.072   2.634
 4237W        W11639  16.869   3.137   0.725
 4238W        W11640   1.713   9.310   7.899
 4239W        W11641  14.402   0.249   0.276
 4240W        W11642  18.299   7.876   9.321
 4241W        W11643  15.869   4.083   0.247
 4242W        W11644   1.260   3.141   0.266
 4243W        W11645   7.574   7.891   9.789
 4244W        W11646  11.003   2.621   9.800
 4245W        W11647   2.694   2.651   8.837
 4246W        W11648   9.520   3.097   2.181
 4247W        W11649  12.459   7.405   1.212
 4248W        W11650  15.860   8.339   0.718
 4249W        W11651   0.291   6.949   9.783
 4250W        W11652   6.619   8.846   7.897
 4251W        W11653   7.581   0.754   9.290
 4252W        W11654  17.822   5.956   1.227
 4253W        W11655   7.075   6.929   9.792
 4254W        W11656  13.930   2.163   8.854
 4255W        W11657   4.641   5.485   2.183
 4256W        W11658   3.171   0.250   8.358
 4257W        W11659  17.846   8.379   1.714
 4258W        W11660   0.251   4.084   2.150
 4259W        W11661  17.828   8.358   9.765
 4260W        W11662  13.446   4.092   9.314
 4261W        W11663  12.449   4.566   1.702
 4262W        W11664   2.695   0.244   1.196
 4263W        W11665  10.045   1.689   9.762
 4264W        W11666  10.048   9.307   9.776
 4265W        W11667  17.849   6.457   1.214
 4266W        W11668  16.829   9.800   2.665
 4267W        W11669  16.855   9.294   0.733
 4268W        W11670   6.136   5.027   7.882
 4269W        W11671   7.576   0.273   9.791
 4270W        W11672   3.198   9.319   0.717
 4271W        W11673   6.104   7.391   1.689
 4272W        W11674   8.558   0.715   8.813
 4273W        W11675   8.559   7.901   7.417
 4274W        W11676  16.365   7.882   1.225
 4275W        W11677   2.695   8.378   8.338
 4276W        W11678  17.814   2.666   8.811
 4277W        W11679  18.791   7.858   9.323
 4278W        W11680  19.299   5.505   2.143
 4279W        W11681   9.027   1.675   1.677
 4280W        W11682  13.458   6.924   8.823
 4281W        W11683   7.111   6.928   8.371
 4282W        W11684   6.624   8.844   8.339
 4283W        W11685  10.025   7.868   0.722
 4284W        W11686  16.377   8.855   8.371
 4285W        W11687  10.046   6.950   1.215
 4286W        W11688  12.940   0.721   1.229
 4287W        W11689  19.281   5.043   8.832
 4288W        W11690  14.904   2.181   7.891
 4289W        W11691   4.154   4.540   7.861
 4290W        W11692  16.388   6.430   1.695
 4291W        W11693   2.684   8.340   0.715
 4292W        W11694  14.897   7.419   9.324
 4293W        W11695   1.726   7.393   0.752
 4294W        W11696  19.762   4.092   9.310
 4295W        W11697   9.068   2.173   2.179
 4296W        W11698   0.773   6.431   0.734
 4297W        W11699  14.431   8.823   7.889
 4298W        W11700  15.399   4.081   0.257
 4299W        W11701  18.819   0.247   1.713
 4300W        W11702   9.038   3.582   0.280
 4301W        W11703  12.479   0.753   0.253
 4302W        W11704   6.138   4.570   7.895
 4303W        W11705   0.754   8.349   0.259
 4304W        W11706   5.620   2.157   9.799
 4305W        W11707  13.914   2.182   9.765
 4306W        W11708  19.288   4.079   9.788
 4307W        W11709  17.342   7.873   1.233
 4308W        W11710  15.405   8.823   7.867
 4309W        W11711   2.706   8.852   2.145
 4310W        W11712  16.369   8.370   9.291
 4311W        W11713   2.685   3.585   1.201
 4312W        W11714  18.322   7.425   1.707
 4313W        W11715  11.504   1.223   0.262
 4314W        W11716  11.496   8.355   0.717
 4315W        W11717   0.264   6.432   2.161
 4316W        W11718  13.446   4.080   7.874
 4317W        W11719  15.372   9.792   0.281
 4318W        W11720  11.475   8.847   0.282
 4319W        W11721  17.323   0.241   1.692
 4320W        W11722  15.392   9.795   0.748
 4321W        W11723  19.311   1.701   9.309
 4322W        W11724   3.665   5.016   9.296
 4323W        W11725   0.270   5.495   8.337
 4324W        W11726  16.362   4.056   0.285
 4325W        W11727  11.482   8.848   9.286
 4326W        W11728   6.603   4.084   1.229
 4327W        W11729   3.707   2.621   8.359
 4328W        W11730  19.297   3.592   0.737
 4329W        W11731   7.119   5.009   0.719
 4330W        W11732  14.878   7.393   0.730
 4331W        W11733  18.297   0.269   9.313
 4332W        W11734   8.074   2.157   8.854
 4333W        W11735   6.624   8.847   1.689
 4334W        W11736  17.812   3.580   9.787
 4335W        W11737  11.486   2.666   8.815
 4336W        W11738   8.547   5.972   1.195
 4337W        W11739  18.810   5.954   8.856
 4338W        W11740   4.160   9.286   1.216
 4339W        W11741  18.298   7.892   9.788
 4340W        W11742   2.705   0.755   7.880
 4341W        W11743   3.194   4.541   9.809
 4342W        W11744   7.566   6.459   1.200
 4343W        W11745  13.908   4.560   8.374
 4344W        W11746   1.742   6.947   2.156
 4345W        W11747   2.244   2.621   1.708
 4346W        W11748  12.473   3.579   0.281
 4347W        W11749  10.488   9.786   7.893
 4348W        W11750  10.019   9.775   9.322
 4349W        W11751   9.070   4.538   1.712
 4350W        W11752   4.663   7.901   0.266
 4351W        W11753  10.030   1.676   8.820
 4352W        W11754  16.358   3.615   2.161
 4353W        W11755   1.709   0.721   2.181
 4354W        W11756   0.286   2.630   0.724
 4355W        W11757   7.575   4.084   9.302
 4356W        W11758   7.093   1.232   2.186
 4357W        W11759  16.855   9.318   7.904
 4358W        W11760   3.206   2.619   1.212
 4359W        W11761  16.875   6.437   1.210
 4360W        W11762   8.582   2.625   7.862
 4361W        W11763  19.282   7.409   1.693
 4362W        W11764  11.501   6.467   7.898
 4363W        W11765  11.500   5.984   9.794
 4364W        W11766   4.679   4.081   8.348
 4365W        W11767   1.248   6.929   0.735
 4366W        W11768  12.943   2.638   9.318
 4367W        W11769  10.531   6.471   9.797
 4368W        W11770   7.575   1.213   8.343
 4369W        W11771  12.440   9.286   1.679
 4370W        W11772  18.303   0.274   8.827
 4371W        W11773  17.330   3.590   1.691
 4372W        W11774  13.945   5.963   8.824
 4373W        W11775  12.973   6.460   0.715
 4374W        W11776  15.391   0.255   0.252
 4375W        W11777   8.064   1.193   1.194
 4376W        W11778  19.794   8.845   7.873
 4377W        W11779   7.590   5.027   8.831
 4378W        W11780   5.620   8.351   0.727
 4379W        W11781   6.612   2.171   1.197
 4380W        W11782  19.792   9.299   0.726
 4381W        W11783   2.220   6.449   8.831
 4382W        W11784   8.063   0.248   1.224
 4383W        W11785  12.482   9.305   9.295
 4384W        W11786  17.843   3.583   7.891
 4385W        W11787  15.882   5.013   9.778
 4386W        W11788  19.293   6.924   8.816
 4387W        W11789  13.426   6.941   1.701
 4388W        W11790  11.006   5.477   1.680
 4389W        W11791  18.826   8.336   1.694
 4390W        W11792  18.820   9.317   0.761
 4391W        W11793   1.745   4.559   9.330
 4392W        W11794   3.696   4.062   9.783
 4393W        W11795   3.704   3.098   9.797
 4394W        W11796  18.792   0.762   7.872
 4395W        W11797  13.451   9.318   1.197
 4396W        W11798  10.996   2.633   0.734
 4397W        W11799  16.831   6.468   8.343
 4398W        W11800  15.861   0.277   0.276
 4399W        W11801   5.164   5.502   8.366
 4400W        W11802   2.693   6.919   1.195
 4401W        W11803  18.298   7.418   9.287
 4402W        W11804   4.670   6.445   8.347
 4403W        W11805  17.357   4.550   9.330
 4404W        W11806  10.994   6.947   1.229
 4405W        W11807   0.281   1.693   8.379
 4406W        W11808  15.401   0.714   1.199
 4407W        W11809   8.581   5.494   2.173
 4408W        W11810   6.115   4.565   8.380
 4409W        W11811  13.933   6.435   2.154
 4410W        W11812   7.118   2.165   9.287
 4411W        W11813   4.178   7.395   9.767
 4412W        W11814   8.556   6.937   1.678
 4413W        W11815   6.110   5.020   9.321
 4414W        W11816   5.628   3.586   1.210
 4415W        W11817  14.921   0.251   0.247
 4416W        W11818  12.967   0.739   8.838
 4417W        W11819  12.973   6.911   0.262
 4418W        W11820  19.771   2.174   1.229
 4419W        W11821  19.787   8.857   9.324
 4420W        W11822  12.968   4.092   1.200
 4421W        W11823   1.729   8.377   0.749
 4422W        W11824   4.188   9.778   8.856
 4423W        W11825   8.549   1.705   0.271
 4424W        W11826   4.650   4.561   8.341
 4425W        W11827   2.205   9.299   7.885
 4426W        W11828   0.251   8.359   1.704
 4427W        W11829   3.202   9.774   1.203
 4428W        W11830  18.306   5.985   8.363
 4429W        W11831   3.670   7.394   0.267
 4430W        W11832   2.706   3.137   9.779
 4431W        W11833  14.424   1.711   1.211
 4432W        W11834  14.893   6.911   0.729
 4433W        W11835  11.488   8.337   1.700
 4434W        W11836   4.638   1.671   8.825
 4435W        W11837   0.757   6.458   9.307
 4436W        W11838  18.294   0.270   0.726
 4437W        W11839   9.036   1.709   2.156
 4438W        W11840   5.619   3.100   8.846
 4439W        W11841  10.509   1.229   0.256
 4440W        W11842   6.098   0.281   0.750
 4441W        W11843  16.877   2.169   0.720
 4442W        W11844  10.515   9.314   9.298
 4443W        W11845   4.169   9.794   2.161
 4444W        W11846  14.914   6.470   2.164
 4445W        W11847   6.628   5.506   8.362
 4446W        W11848  16.847   2.182   9.312
 4447W        W11849  15.877   1.226   0.739
 4448W        W11850   1.733   0.745   7.892
 4449W        W11851   1.236   1.237   2.188
 4450W        W11852  17.848   7.900   1.192
 4451W        W11853  12.952   5.006   1.668
 4452W        W11854  18.325   2.160   9.315
 4453W        W11855  12.946   8.821   1.236
 4454W        W11856  16.375   0.258   8.368
 4455W        W11857  19.299   3.133   8.843
 4456W        W11858  10.008   0.741   7.411
 4457W        W11859   2.716   3.101   2.181
 4458W        W11860   0.739   0.715   8.346
 4459W        W11861   5.647   0.272   2.189
 4460W        W11862  17.826   9.329   0.743
 4461W        W11863   9.031   0.718   7.900
 4462W        W11864   5.611   3.609   8.379
 4463W        W11865   0.772   9.290   1.212
 4464W        W11866   3.695   9.333   7.897
 4465W        W11867  12.945   2.646   2.150
 4466W        W11868  19.294   7.404   8.367
 4467W        W11869  13.927   1.234   8.338
 4468W        W11870   2.709   5.520   8.853
 4469W        W11871  19.314   1.701   8.827
 4470W        W11872  17.850   4.532   2.146
 4471W        W11873   3.659   6.932   8.814
 4472W        W11874  15.412   1.199   2.179
 4473W        W11875  14.906   3.138   8.367
 4474W        W11876  10.995   8.840   7.899
 4475W        W11877  15.375   9.329   8.812
 4476W        W11878  16.364   1.224   0.260
 4477W        W11879   8.561   8.813   8.828
 4478W        W11880  17.839   2.631   0.758
 4479W        W11881  10.034   3.107   9.800
 4480W        W11882  18.325   1.701   9.779
 4481W        W11883   3.212   3.617   8.359
 4482W        W11884   0.764   3.617   1.676
 4483W        W11885  17.815   0.753   7.898
 4484W        W11886   2.705   0.727   1.233
 4485W        W11887   8.069   4.087   2.167
 4486W        W11888   7.098   5.973   8.349
 4487W        W11889   9.524   9.783   9.301
 4488W        W11890   5.618   7.901   7.882
 4489W        W11891  10.046   8.841   7.865
 4490W        W11892  16.877   6.460   2.144
 4491W        W11893   7.112   4.056   0.243
 4492W        W11894  14.923   1.685   1.676
 4493W        W11895  15.899   5.975   0.264
 4494W        W11896  15.895   5.048   7.861
 4495W        W11897  18.317   6.915   9.799
 4496W        W11898   6.141   0.742   9.291
 4497W        W11899   3.691   2.154   7.897
 4498W        W11900   4.148   0.267   7.874
 4499W        W11901   4.666   5.038   7.404
 4500W        W11902   6.622   5.997   7.861
 4501W        W11903  14.886   6.917   8.841
 4502W        W11904   2.725   3.098   0.255
 4503W        W11905   9.532   3.571   7.887
 4504W        W11906   9.515   4.085   7.876
 4505W        W11907  18.333   1.225   7.869
 4506W        W11908  18.797   7.382   1.709
 4507W        W11909   5.147   5.021   8.847
 4508W        W11910  16.854   3.103   0.263
 4509W        W11911  16.351   8.837   0.260
 4510W        W11912   9.533   9.785   8.812
 4511W        W11913   3.216   8.344   0.741
 4512W        W11914  11.982   6.450   1.669
 4513W        W11915  12.957   9.295   7.397
 4514W        W11916   9.060   9.782   2.155
 4515W        W11917   3.200   2.625   9.288
 4516W        W11918   6.609   2.150   8.354
 4517W        W11919  18.314   3.610   1.235
 4518W        W11920   7.107   8.341   2.172
 4519W        W11921   7.572   7.424   1.215
 4520W        W11922  14.893   7.865   8.378
 4521W        W11923  15.408   1.202   1.192
 4522W        W11924  14.907   5.482   7.889
 4523W        W11925  18.816   9.778   9.792
 4524W        W11926   5.150   9.319   8.340
 4525W        W11927   3.683   0.249   9.297
 4526W        W11928   9.042   1.222   0.740
 4527W        W11929  18.324   5.028   0.278
 4528W        W11930   5.626   9.763   0.730
 4529W        W11931  18.293   3.595   0.738
 4530W        W11932  11.013   8.344   8.373
 4531W        W11933   7.119   0.752   0.730
 4532W        W11934  12.486   7.390   9.326
 4533W        W11935   8.582   2.160   1.219
 4534W        W11936   3.210   4.066   8.843
 4535W        W11937  10.519   8.339   8.362
 4536W        W11938   4.158   8.840   7.871
 4537W        W11939  16.358   0.265   0.266
 4538W        W11940   8.083   1.702   0.261
 4539W        W11941   6.634   4.067   8.356
 4540W        W11942   5.138   7.890   0.717
 4541W        W11943   5.152   8.836   7.905
 4542W        W11944   1.235   8.380   7.888
 4543W        W11945   4.182   4.085   7.885
 4544W        W11946   6.608   7.902   2.162
 4545W        W11947  11.958   2.154   2.159
 4546W        W11948  12.969   8.368   2.152
 4547W        W11949   5.163   8.353   1.713
 4548W        W11950   2.731   9.765   9.794
 4549W        W11951  12.476   8.356   8.820
 4550W        W11952  19.800   1.687   2.161
 4551W        W11953  15.858   2.153   7.873
 4552W        W11954  16.345   0.748   0.746
 4553W        W11955   0.275   8.372   0.719
 4554W        W11956  15.402   2.156   9.790
 4555W        W11957  11.990   5.511   7.890
 4556W        W11958  12.949   4.055   9.299
 4557W        W11959   7.561   3.598   1.692
 4558W        W11960  18.328   2.625   9.304
 4559W        W11961  17.366   1.694   0.247
 4560W        W11962   9.073   5.975   2.146
 4561W        W11963  12.448   2.169   7.879
 4562W        W11964  11.013   0.265   8.818
 4563W        W11965   3.194   5.505   7.895
 4564W        W11966   4.156   3.128   0.258
 4565W        W11967   6.125   4.091   2.161
 4566W        W11968   5.622   3.121   9.782
 4567W        W11969  14.884   7.390   8.844
 4568W        W11970   2.725   1.223   7.903
 4569W        W11971  19.298   5.005   1.676
 4570W        W11972   2.711   9.302   7.384
 4571W        W11973  13.459   7.874   7.876
 4572W        W11974  14.910   0.256   1.682
 4573W        W11975  17.328   8.817   1.216
 4574W        W11976   9.548   0.282   7.894
 4575W        W11977  14.909   5.014   1.706
 4576W        W11978  10.497   5.996   1.669
 4577W        W11979  18.805   7.399   0.720
 4578W        W11980   8.050   2.650   0.722
 4579W        W11981   5.632   4.554   7.862
 4580W        W11982   6.626   7.891   8.826
 4581W        W11983  16.868   6.925   9.332
 4582W        W11984   8.069   2.631   9.796
 4583W        W11985  18.790   5.517   8.334
 4584W        W11986   2.724   7.873   0.756
 4585W        W11987   0.756   1.219   8.379
 4586W        W11988   2.235   5.036   8.833
 4587W        W11989   4.665   0.751   1.193
 4588W        W11990   9.030   7.904   0.753
 4589W        W11991  11.483   3.110   8.839
 4590W        W11992   4.645   2.628   8.359
 4591W        W11993  13.456   4.550   1.238
 4592W        W11994  13.436   1.233   2.148
 4593W        W11995  15.410   2.152   1.236
 4594W        W11996  18.782   9.333   8.378
 4595W        W11997   7.574   3.619   1.229
 4596W        W11998  16.358   4.069   9.772
 4597W        W11999  12.458   0.277   8.348
 4598W        W12000   4.677   2.629   1.210
 4599W        W12001  10.530   8.362   0.737
 4600W        W12002  18.786   5.504   8.843
 4601W        W12003   2.199   4.539   2.150
 4602W        W12004   2.726   1.211   1.694
 4603W        W12005   6.120   4.568   8.823
 4604W        W12006   9.047   2.622   0.271
 4605W        W12007   1.717   8.344   1.232
 4606W        W12008   5.152   0.286   8.376
 4607W        W12009   1.723   1.681   9.797
 4608W        W12010  12.944   4.569   1.220
 4609W        W12011  13.433   2.154   9.787
 4610W        W12012   5.139   8.379   2.156
 4611W        W12013   8.559   4.069   8.344
 4612W        W12014  17.850   9.793   7.902
 4613W        W12015   0.283   2.656   8.339
 4614W        W12016   0.755   4.556   9.797
 4615W        W12017  17.358   3.611   7.883
 4616W        W12018   7.081   3.134   9.313
 4617W        W12019  18.311   9.305   0.240
 4618W        W12020   2.227   6.952   8.844
 4619W        W12021   0.780   5.002   0.277
 4620W        W12022  17.349   8.823   0.259
 4621W        W12023  10.028   4.075   2.167
 4622W        W12024   1.729   3.597   9.314
 4623W        W12025  16.847   6.445   8.852
 4624W        W12026  16.860   5.483   9.769
 4625W        W12027   0.293   7.880   9.805
 4626W        W12028  11.953   4.530   0.743
 4627W        W12029   1.244   1.697   0.730
 4628W        W12030   1.718   3.607   0.730
 4629W        W12031  11.500   5.984   2.146
 4630W        W12032  13.421   5.512   0.746
 4631W        W12033  13.918   0.739   9.795
 4632W        W12034  10.517   7.408   1.213
 4633W        W12035  16.848   7.420   1.237
 4634W        W12036  11.002   5.958   8.853
 4635W        W12037  10.042   6.465   2.177
 4636W        W12038   2.732   7.395   0.264
 4637W        W12039  11.014   7.415   2.184
 4638W        W12040   9.523   2.646   0.721
 4639W        W12041  15.411   5.034   9.808
 4640W        W12042   4.677   0.724   8.340
 4641W        W12043   4.187   8.832   1.700
 4642W        W12044   8.073   5.511   7.889
 4643W        W12045  12.481   8.832   2.168
 4644W        W12046  11.958   8.375   0.737
 4645W        W12047  16.376   2.641   0.242
 4646W        W12048  10.005   4.527   9.289
 4647W        W12049  16.366   1.694   8.839
 4648W        W12050   4.154   5.018   8.371
 4649W        W12051  12.951   7.886   7.871
 4650W        W12052   3.666   2.187   1.203
 4651W        W12053   5.639   9.286   8.380
 4652W        W12054   6.106   7.402   8.820
 4653W        W12055   0.774   9.785   0.735
 4654W        W12056   2.230   4.553   8.841
 4655W        W12057   8.071   9.333   9.296
 4656W        W12058  11.004   9.772   9.791
 4657W        W12059   4.162   6.465   8.358
 4658W        W12060   3.673   4.552   7.899
 4659W        W12061   8.576   5.478   9.779
 4660W        W12062   4.680   6.936   7.894
 4661W        W12063   3.695   7.412   9.796
 4662W        W12064  16.865   7.420   1.698
 4663W        W12065   3.678   3.573   0.273
 4664W        W12066  15.396   3.116   0.283
 4665W        W12067  19.298   8.377   9.325
 4666W        W12068   3.182   0.269   7.863
 4667W        W12069  17.362   3.107   0.716
 4668W        W12070   7.107   6.471   1.233
 4669W        W12071  15.893   6.470   1.709
 4670W        W12072   8.060   3.120   8.854
 4671W        W12073   6.588   7.407   2.177
 4672W        W12074  13.461   6.920   0.283
 4673W        W12075  12.934   7.412   8.855
 4674W        W12076   5.170   1.695   8.856
 4675W        W12077  14.883   8.819   0.261
 4676W        W12078   1.232   4.072   9.787
 4677W        W12079  13.920   6.470   9.795
 4678W        W12080  19.271   0.733   6.922
 4679W        W12081   0.285   5.992   2.179
 4680W        W12082   8.565   7.903   0.725
 4681W        W12083  16.830   9.793   1.690
 4682W        W12084  17.830   9.319   9.325
 4683W        W12085   0.271   2.176   1.690
 4684W        W12086   9.552   9.767   0.755
 4685W        W12087  18.303   2.181   2.170
 4686W        W12088   7.098   7.404   9.801
 4687W        W12089  12.465   0.745   9.287
 4688W        W12090   3.172   9.300   9.304
 4689W        W12091   5.145   6.950   1.697
 4690W        W12092  19.790   1.209   0.258
 4691W        W12093   4.159   4.074   1.705
 4692W        W12094  15.866   7.388   8.380
 4693W        W12095  17.342   9.330   7.891
 4694W        W12096  11.492   7.394   0.750
 4695W        W12097  18.806   0.281   8.824
 4696W        W12098  10.508   3.592   0.740
 4697W        W12099   9.552   5.035   9.303
 4698W        W12100  19.283   5.971   1.669
 4699W        W12101   0.772   0.756   0.719
 4700W        W12102  16.364   0.736   9.790
 4701W        W12103  14.434   5.968   0.736
 4702W        W12104   4.659   6.940   2.189
 4703W        W12105   1.232   2.629   1.700
 4704W        W12106  19.286   7.864   2.167
 4705W        W12107  15.872   4.095   1.229
 4706W        W12108  18.787   3.134   9.292
 4707W        W12109   3.677   0.271   1.697
 4708W        W12110   2.201   8.843   8.339
 4709W        W12111   4.682   1.225   9.786
 4710W        W12112  18.308   8.380   0.238
 4711W        W12113  17.827   6.433   8.838
 4712W        W12114   3.659   7.891   9.763
 4713W        W12115   2.233   2.150   7.385
 4714W        W12116   3.673   4.072   1.233
 4715W        W12117  19.303   1.712   9.790
 4716W        W12118   9.067   0.726   8.353
 4717W        W12119  16.873   5.984   8.352
 4718W        W12120  12.447   5.512   8.346
 4719W        W12121   8.585   6.939   2.162
 4720W        W12122   6.602   0.749   7.887
 4721W        W12123  13.443   0.721   0.283
 4722W        W12124   1.720   7.863   0.279
 4723W        W12125  13.907   3.616   8.823
 4724W        W12126   3.704   6.456   8.358
 4725W        W12127   3.683   7.897   1.202
 4726W        W12128  11.971   3.590   0.252
 4727W        W12129   3.672   0.281   8.816
 4728W        W12130   9.551   7.888   9.309
 4729W        W12131  13.923   1.199   9.320
 4730W        W12132   7.580   8.360   8.363
 4731W        W12133   4.683   0.255   0.245
 4732W        W12134  12.933   5.963   2.174
 4733W        W12135   4.192   5.046   1.710
 4734W        W12136   9.524   8.367   7.892
 4735W        W12137   9.035   9.318   9.786
 4736W        W12138  13.440   5.004   7.871
 4737W        W12139  16.843   1.235   1.198
 4738W        W12140   6.624   6.924   9.298
 4739W        W12141  12.957   5.489   1.220
 4740W        W12142  16.877   3.105   1.706
 4741W        W12143  18.798   4.061   8.380
 4742W        W12144  14.395   0.758   0.278
 4743W        W12145   2.684   8.337   9.795
 4744W        W12146  19.803   6.468   8.842
 4745W        W12147   1.265   1.232   8.369
 4746W        W12148  15.890   9.288   0.282
 4747W        W12149   7.576   1.695   0.730
 4748W        W12150   4.153   1.225   8.376
 4749W        W12151   5.651   9.794   1.231
 4750W        W12152  15.881   9.292   9.781
 4751W        W12153  12.966   0.269   0.761
 4752W        W12154   3.701   0.747   8.815
 4753W        W12155   6.606   4.095   1.668
 4754W        W12156   1.715   7.410   1.701
 4755W        W12157   2.224   5.520   2.190
 4756W        W12158  19.764   5.972   9.801
 4757W        W12159  16.363   7.402   7.885
 4758W        W12160   7.093   0.243   2.175
 4759W        W12161   2.233   2.629   0.267
 4760W        W12162  16.355   7.875   0.265
 4761W        W12163  12.928   0.257   1.211
 4762W        W12164  15.880   6.457   9.766
 4763W        W12165  14.399   4.571   7.897
 4764W        W12166  10.498   7.900   2.143
 4765W        W12167   5.651   6.462   8.344
 4766W        W12168  18.295   5.506   0.724
 4767W        W12169   7.077   1.213   9.298
 4768W        W12170   0.282   4.093   8.811
 4769W        W12171  16.374   9.782   9.307
 4770W        W12172   6.109   7.891   0.239
 4771W        W12173   9.065   9.782   7.858
 4772W        W12174  17.360   9.292   0.736
 4773W        W12175   9.047   0.262   0.245
 4774W        W12176  17.329   5.970   2.157
 4775W        W12177   3.670   4.528   9.765
 4776W        W12178   5.656   6.948   2.159
 4777W        W12179  18.791   3.578   9.299
 4778W        W12180  18.301   7.392   0.247
 4779W        W12181  15.900   7.384   9.299
 4780W        W12182   2.199   5.963   0.252
 4781W        W12183  12.468   2.155   2.166
 4782W        W12184   1.720   7.895   2.180
 4783W        W12185   8.093   5.970   1.204
 4784W        W12186  10.536   9.792   1.232
 4785W        W12187   8.581   1.686   7.895
 4786W        W12188   2.204   2.162   0.274
 4787W        W12189  13.418   2.188   7.886
 4788W        W12190  14.403   5.964   8.347
 4789W        W12191  13.912   0.734   1.702
 4790W        W12192   0.746   5.511   1.221
 4791W        W12193   2.705   0.719   8.818
 4792W        W12194  14.399   6.430   2.170
 4793W        W12195  18.827   0.732   9.320
 4794W        W12196  11.971   9.311   7.902
 4795W        W12197   3.677   2.642   1.234
 4796W        W12198   6.116   2.640   0.727
 4797W        W12199  14.404   8.380   0.255
 4798W        W12200   8.084   7.411   9.764
 4799W        W12201   4.181   9.803   8.378
 4800W        W12202  16.841   4.075   9.319
 4801W        W12203   7.607   6.000   2.166
 4802W        W12204   4.164   3.596   1.701
 4803W        W12205  11.956   5.019   2.150
 4804W        W12206  15.868   8.830   7.868
 4805W        W12207   8.582   3.134   7.409
 4806W        W12208  19.315   0.753   7.865
 4807W        W12209   1.729   0.244   9.319
 4808W        W12210   4.150   1.228   9.768
 4809W        W12211   5.159   7.389   9.293
 4810W        W12212   0.755   1.691   9.303
 4811W        W12213  17.338   5.008   2.158
 4812W        W12214  16.858   7.891   1.693
 4813W        W12215  17.853   8.360   8.854
 4814W        W12216  18.329   0.722   1.196
 4815W        W12217  13.450   0.279   1.223
 4816W        W12218   4.681   9.333   7.895
 4817W        W12219  12.937   9.790   0.722
 4818W        W12220  19.785   0.273   0.733
 4819W        W12221   0.745   9.303   9.304
 4820W        W12222  11.003   0.245   2.631
 4821W        W12223   3.196   1.218   9.763
 4822W        W12224   1.235   5.513   0.716
 4823W        W12225  15.855   9.790   8.850
 4824W        W12226   8.065   2.158   2.170
 4825W        W12227   1.266   6.457   8.340
 4826W        W12228   5.158   3.578   9.307
 4827W        W12229  16.844   8.350   1.683
 4828W        W12230  11.466   7.892   9.312
 4829W        W12231   7.094   6.947   0.735
 4830W        W12232  11.958   8.841   0.248
 4831W        W12233   3.197   8.365   1.205
 4832W        W12234  17.815   0.251   8.851
 4833W        W12235   4.171   3.123   1.693
 4834W        W12236  11.013   6.442   2.159
 4835W        W12237   0.278   6.452   8.335
 4836W        W12238   6.145   6.444   1.678
 4837W        W12239  10.490   9.772   2.177
 4838W        W12240   0.272   5.015   9.292
 4839W        W12241   3.217   5.036   7.876
 4840W        W12242   2.714   4.550   8.834
 4841W        W12243   2.207   9.776   8.833
 4842W        W12244   9.062   6.450   7.864
 4843W        W12245  18.814   8.344   7.890
 4844W        W12246   4.184   8.815   0.723
 4845W        W12247   9.052   6.449   0.716
 4846W        W12248  10.985   2.156   1.703
 4847W        W12249   2.238   1.197   9.806
 4848W        W12250  13.923   1.675   0.723
 4849W        W12251   5.628   6.916   8.825
 4850W        W12252  12.453   7.425   1.672
 4851W        W12253   2.724   7.414   9.302
 4852W        W12254  12.479   4.528   8.825
 4853W        W12255  18.300   3.605   8.846
 4854W        W12256  19.786   6.449   1.223
 4855W        W12257   9.067   4.537   9.784
 4856W        W12258   4.667   7.866   0.738
 4857W        W12259  19.314   9.792   1.221
 4858W        W12260   3.694   8.356   1.195
 4859W        W12261  14.417   0.728   7.870
 4860W        W12262  17.835   7.405   0.243
 4861W        W12263  15.377   0.738   8.831
 4862W        W12264   8.072   1.680   2.148
 4863W        W12265  19.766   7.414   9.784
 4864W        W12266   1.254   2.656   9.322
 4865W        W12267  18.333   5.478   2.184
 4866W        W12268   7.602   4.554   1.237
 4867W        W12269   7.565   3.617   0.283
 4868W        W12270   7.568   8.360   1.689
 4869W        W12271  11.974   2.155   7.903
 4870W        W12272   2.727   3.604   9.801
 4871W        W12273   0.763   0.736   1.212
 4872W        W12274  13.447   5.999   8.367
 4873W        W12275  10.986   4.084   2.177
 4874W        W12276  16.348   5.038   9.301
 4875W        W12277   2.223   7.873   1.671
 4876W        W12278   4.649   5.009   1.708
 4877W        W12279  10.982   6.458   7.387
 4878W        W12280  14.908   3.126   8.842
 4879W        W12281  17.853   5.025   1.202
 4880W        W12282  10.033   6.935   8.359
 4881W        W12283   0.754   5.971   2.162
 4882W        W12284   6.132   2.167   9.322
 4883W        W12285   0.779   7.397   7.863
 4884W        W12286   6.142   2.186   1.195
 4885W        W12287   1.242   1.700   1.232
 4886W        W12288  14.883   7.882   0.736
 4887W        W12289  10.510   5.038   9.787
 4888W        W12290   2.709   1.236   2.182
 4889W        W12291   3.685   6.443   7.892
 4890W        W12292   1.754   3.108   8.351
 4891W        W12293   3.690   0.728   9.294
 4892W        W12294   5.622   4.527   0.242
 4893W        W12295   9.043   3.595   1.205
 4894W        W12296  16.878   5.992   7.871
 4895W        W12297   1.748   0.252   9.800
 4896W        W12298  18.822   8.362   0.753
 4897W        W12299   5.127   1.198   9.296
 4898W        W12300   7.590   1.691   1.236
 4899W        W12301   9.042   1.220   1.193
 4900W        W12302   0.284   2.184   9.310
 4901W        W12303  13.429   4.069   9.794
 4902W        W12304  10.997   7.860   9.763
 4903W        W12305   5.636   1.671   8.839
 4904W        W12306  10.526   1.699   1.673
 4905W        W12307  14.918   7.884   7.866
 4906W        W12308  15.407   8.378   8.814
 4907W        W12309   8.089   6.470   1.714
 4908W        W12310   8.050   5.977   9.778
 4909W        W12311   0.292   3.615   9.797
 4910W        W12312  18.804   6.464   8.817
 4911W        W12313   0.251   5.017   1.692
 4912W        W12314   1.255   9.286   9.297
 4913W        W12315   6.112   5.996   1.713
 4914W        W12316   7.091   6.945   0.280
 4915W        W12317  12.449   4.063   0.718
 4916W        W12318  14.407   1.704   9.313
 4917W        W12319  19.276   0.281   1.674
 4918W        W12320  14.439   5.984   1.684
 4919W        W12321  12.446   1.712   1.683
 4920W        W12322  10.535   2.646   7.904
 4921W        W12323  17.811   8.827   1.671
 4922W        W12324   4.667   3.599   1.690
 4923W        W12325  10.524   8.370   1.712
 4924W        W12326  12.955   5.026   9.333
 4925W        W12327   3.193   1.691   8.379
 4926W        W12328   4.660   7.901   9.764
 4927W        W12329  19.765   8.357   0.257
 4928W        W12330   8.550   4.538   9.790
 4929W        W12331   4.663   2.156   0.717
 4930W        W12332  17.364   2.183   1.683
 4931W        W12333  13.449   5.496   8.854
 4932W        W12334   7.094   5.493   0.726
 4933W        W12335   9.540   6.000   9.307
 4934W        W12336  16.840   4.549   0.278
 4935W        W12337  14.436   4.078   9.291
 4936W        W12338  15.393   2.626   8.849
 4937W        W12339   5.147   2.184   9.313
 4938W        W12340  19.776   4.050   7.879
 4939W        W12341   2.233   8.362   9.332
 4940W        W12342   2.215   5.485   2.648
 4941W        W12343  18.827   8.840   8.365
 4942W        W12344  14.915   2.148   1.212
 4943W        W12345   3.674   2.158   1.693
 4944W        W12346  12.936   7.412   1.695
 4945W        W12347   9.551   1.691   9.306
 4946W        W12348   0.770   5.491   9.288
 4947W        W12349   9.548   5.963   8.832
 4948W        W12350  14.424   5.481   0.240
 4949W        W12351  16.875   0.266   9.796
 4950W        W12352  14.903   7.865   8.818
 4951W        W12353   8.086   4.054   9.786
 4952W        W12354  19.800   4.080   8.811
 4953W        W12355  10.018   0.267   0.756
 4954W        W12356   6.107   5.484   1.195
 4955W        W12357   0.743   5.972   7.893
 4956W        W12358   4.676   5.010   7.872
 4957W        W12359  12.972   1.229   7.877
 4958W        W12360   4.639   0.272   8.846
 4959W        W12361  17.334   0.263   7.884
 4960W        W12362   3.191   5.524   9.783
 4961W        W12363  18.340   2.662   7.857
 4962W        W12364   7.565   8.339   7.865
 4963W        W12365  14.906   5.970   8.338
 4964W        W12366  11.023   9.321   8.823
 4965W        W12367  16.837   0.248   8.354
 4966W        W12368  15.894   8.826   9.788
 4967W        W12369   3.677   5.994   8.826
 4968W        W12370   8.096   3.609   2.150
 4969W        W12371   2.695   6.465   1.669
 4970W        W12372  12.477   4.556   9.792
 4971W        W12373   6.626   8.846   9.304
 4972W        W12374   2.242   3.120   8.849
 4973W        W12375  14.428   2.177   2.178
 4974W        W12376  13.453   1.232   8.360
 4975W        W12377  17.344   1.212   8.353
 4976W        W12378  19.274   8.351   2.667
 4977W        W12379   3.191   1.197   8.376
 4978W        W12380   1.751   9.298   8.351
 4979W        W12381   0.746   6.429   7.420
 4980W        W12382   4.675   7.409   0.263
 4981W        W12383  13.427   5.998   9.314
 4982W        W12384  19.273   2.148   8.374
 4983W        W12385  13.417   7.875   1.673
 4984W        W12386  14.921   0.284   9.299
 4985W        W12387  15.865   6.933   8.341
 4986W        W12388  13.415   3.585   8.369
 4987W        W12389   2.196   2.657   8.348
 4988W        W12390   7.092   3.103   9.782
 4989W        W12391  15.376   5.001   0.756
 4990W        W12392  15.893   6.907   1.233
 4991W        W12393  19.276   1.193   9.303
 4992W        W12394  12.960   0.753   0.718
 4993W        W12395   4.635   0.255   1.704
 4994W        W12396  18.802   8.848   8.831
 4995W        W12397  10.002   1.221   8.349
 4996W        W12398  18.325   9.781   1.691
 4997W        W12399  10.001   9.781   1.672
 4998W        W12400  15.410   5.990   9.290
 4999W        W12401   1.247   5.522   2.160
 5000W        W12402   1.246   7.392   0.244
 5001W        W12403   7.567   2.646   9.765
 5002W        W12404  10.520   5.965   1.219
 5003W        W12405   7.597   7.415   1.704
 5004W        W12406  19.291   4.063   2.185
 5005W        W12407  15.894   5.502   0.260
 5006W        W12408  10.503   8.855   1.677
 5007W        W12409  10.032   5.991   8.354
 5008W        W12410   6.111   6.438   0.729
 5009W        W12411   6.103   6.951   0.241
 5010W        W12412  10.533   5.002   9.332
 5011W        W12413  14.423   5.497   0.725
 5012W        W12414   7.105   4.089   7.890
 5013W        W12415   3.193   7.420   7.865
 5014W        W12416   6.119   8.354   9.796
 5015W        W12417   8.581   0.284   1.671
 5016W        W12418   8.556   2.148   9.809
 5017W        W12419  11.476   7.862   8.377
 5018W        W12420  11.480   4.563   0.285
 5019W        W12421  19.778   2.189   0.744
 5020W        W12422   7.110   1.699   0.717
 5021W        W12423  17.819   8.351   7.400
 5022W        W12424   6.144   9.330   1.233
 5023W        W12425   7.079   8.846   1.677
 5024W        W12426   7.095   7.884   7.386
 5025W        W12427  11.503   6.920   0.267
 5026W        W12428   0.282   1.692   0.258
 5027W        W12429  14.403   3.597   0.272
 5028W        W12430   0.739   9.789   8.351
 5029W        W12431  19.795   3.600   1.709
 5030W        W12432   8.562   7.420   1.218
 5031W        W12433  19.308   8.371   9.772
 5032W        W12434  11.012   9.800   2.172
 5033W        W12435   1.229   2.650   2.162
 5034W        W12436  12.955   8.820   0.749
 5035W        W12437  15.378   7.387   0.753
 5036W        W12438   2.209   9.769   1.198
 5037W        W12439   7.594   2.169   2.156
 5038W        W12440  18.294   7.903   8.829
 5039W        W12441   3.188   3.109   9.779
 5040W        W12442  11.972   9.290   8.366
 5041W        W12443  12.462   8.359   9.797
 5042W        W12444   4.658   7.428   8.811
 5043W        W12445   4.176   4.063   1.233
 5044W        W12446  12.476   3.573   2.169
 5045W        W12447  10.028   9.780   1.217
 5046W        W12448   5.622   0.265   1.223
 5047W        W12449  19.274   6.940   1.224
 5048W        W12450   6.139   3.115   2.171
 5049W        W12451   9.065   6.917   1.687
 5050W        W12452  10.515   4.547   1.212
 5051W        W12453  10.503   1.667   0.758
 5052W        W12454  18.341   0.723   2.621
 5053W        W12455   7.106   0.278   8.336
 5054W        W12456   9.549   6.921   2.185
 5055W        W12457   3.700   8.360   2.180
 5056W        W12458   8.079   6.468   2.156
 5057W        W12459   0.279   4.535   0.284
 5058W        W12460  10.025   1.225   0.253
 5059W        W12461  15.409   8.375   2.188
 5060W        W12462  12.959   6.467   8.378
 5061W        W12463  13.426   9.325   9.774
 5062W        W12464   1.753   4.543   1.210
 5063W        W12465  18.304   9.782   2.159
 5064W        W12466   9.555   4.570   8.832
 5065W        W12467   7.608   5.995   9.803
 5066W        W12468  15.389   9.788   1.197
 5067W        W12469  16.364   3.098   7.864
 5068W        W12470   8.050   3.120   8.349
 5069W        W12471   3.196   7.396   1.230
 5070W        W12472  11.967   5.045   7.885
 5071W        W12473  17.810   3.594   1.713
 5072W        W12474  19.305   5.503   0.729
 5073W        W12475  18.317   9.332   1.698
 5074W        W12476  19.769   8.823   0.244
 5075W        W12477   5.152   6.914   9.306
 5076W        W12478   9.047   9.312   9.295
 5077W        W12479   2.235   7.875   7.868
 5078W        W12480   2.698   5.970   9.301
 5079W        W12481  12.954   8.347   9.772
 5080W        W12482  11.465   9.291   3.121
 5081W        W12483   5.156   0.732   1.700
 5082W        W12484  17.836   4.077   0.718
 5083W        W12485  13.447   3.121   9.804
 5084W        W12486  17.818   0.271   8.350
 5085W        W12487  10.522   0.733   0.730
 5086W        W12488  16.379   5.976   7.889
 5087W        W12489   3.202   6.906   2.170
 5088W        W12490  14.412   3.595   0.725
 5089W        W12491   1.252   8.831   0.281
 5090W        W12492   1.731   6.950   8.850
 5091W        W12493   5.643   7.872   1.671
 5092W        W12494   5.170   6.909   0.266
 5093W        W12495  19.315   0.717   8.815
 5094W        W12496  14.438   1.223   1.709
 5095W        W12497   4.176   8.820   9.784
 5096W        W12498  15.873   8.378   7.901
 5097W        W12499  16.350   7.863   7.882
 5098W        W12500  11.482   6.448   9.291
 5099W        W12501   4.669   3.114   9.313
 5100W        W12502   4.653   5.040   9.802
 5101W        W12503   1.713   5.000   2.640
 5102W        W12504   8.070   0.738   0.239
 5103W        W12505  15.872   5.010   1.705
 5104W        W12506  11.962   2.661   7.903
 5105W        W12507   4.157   5.973   0.735
 5106W        W12508   0.272   2.626   8.839
 5107W        W12509   0.285   4.539   1.711
 5108W        W12510   6.632   5.958   1.703
 5109W        W12511  17.358   9.287   0.273
 5110W        W12512  11.493   8.836   0.758
 5111W        W12513   4.184   7.404   1.671
 5112W        W12514  12.975   6.949   8.840
 5113W        W12515  18.340   6.469   9.804
 5114W        W12516  17.349   6.452   8.836
 5115W        W12517   2.216   8.842   1.683
 5116W        W12518   9.059   1.232   9.306
 5117W        W12519  11.465   5.022   8.853
 5118W        W12520   3.670   7.427   1.207
 5119W        W12521  14.410   1.693   0.277
 5120W        W12522  11.988   2.151   0.755
 5121W        W12523  16.372   1.218   9.315
 5122W        W12524  16.364   4.531   1.684
 5123W        W12525   0.756   1.223   2.147
 5124W        W12526  17.364   7.901   2.173
 5125W        W12527  19.282   0.267   2.658
 5126W        W12528  12.466   5.517   7.864
 5127W        W12529  13.435   0.258   9.791
 5128W        W12530   0.737   5.499   8.337
 5129W        W12531  19.802   9.768   8.340
 5130W        W12532   8.563   2.627   2.179
 5131W        W12533   6.608   5.485   2.163
 5132W        W12534  16.381   7.903   2.151
 5133W        W12535  13.419   3.099   0.277
 5134W        W12536  19.785   8.832   8.349
 5135W        W12537  12.928   3.602   9.767
 5136W        W12538  10.039   4.075   7.864
 5137W        W12539   2.238   0.750   1.228
 5138W        W12540  10.515   0.252   8.355
 5139W        W12541  16.373   0.753   8.358
 5140W        W12542   6.100   1.686   2.180
 5141W        W12543   8.063   4.084   9.327
 5142W        W12544  12.445   9.783   2.162
 5143W        W12545  14.923   9.782   9.287
 5144W        W12546  10.988   6.951   9.309
 5145W        W12547   3.673   1.229   2.170
 5146W        W12548  18.815   9.307   9.786
 5147W        W12549  15.413   2.180   2.167
 5148W        W12550  13.929   2.174   2.154
 5149W        W12551   3.668   0.240   1.223
 5150W        W12552   6.588   5.959   9.780
 5151W        W12553   2.705   3.601   1.698
 5152W        W12554   6.624   1.232   8.348
 5153W        W12555  15.877   5.489   1.704
 5154W        W12556   1.732   7.893   0.739
 5155W        W12557   5.126   0.262   0.729
 5156W        W12558  19.804   3.140   8.350
 5157W        W12559   4.649   2.666   7.381
 5158W        W12560   0.765   8.814   9.776
 5159W        W12561  11.468   0.256   7.868
 5160W        W12562  16.843   8.355   2.654
 5161W        W12563  15.379   0.749   8.333
 5162W        W12564   4.652   9.768   9.295
 5163W        W12565  16.389   3.103   9.797
 5164W        W12566  15.884   9.293   0.714
 5165W        W12567   1.720   6.449   7.900
 5166W        W12568  12.927   9.292   8.375
 5167W        W12569  15.414   1.704   8.379
 5168W        W12570  17.836   5.009   9.778
 5169W        W12571   5.161   7.903   0.280
 5170W        W12572  11.017   2.182   9.318
 5171W        W12573  16.841   6.432   0.745
 5172W        W12574   3.673   5.506   7.868
 5173W        W12575  14.900   1.708   7.409
 5174W        W12576   8.097   4.567   8.817
 5175W        W12577  14.901   4.061   0.264
 5176W        W12578   2.227   1.215   0.277
 5177W        W12579  12.465   6.447   9.797
 5178W        W12580   6.104   1.211   8.829
 5179W        W12581  15.376   3.611   9.776
 5180W        W12582   4.156   9.769   1.203
 5181W        W12583   3.193   5.970   8.342
 5182W        W12584  16.877   5.977   2.144
 5183W        W12585   8.056   8.840   1.199
 5184W        W12586  16.878   4.058   8.828
 5185W        W12587  14.920   9.303   0.748
 5186W        W12588   9.554   7.416   8.350
 5187W        W12589   3.692   3.126   1.702
 5188W        W12590  10.004   9.329   2.633
 5189W        W12591   4.172   0.745   7.888
 5190W        W12592   7.589   9.288   0.273
 5191W        W12593   3.693   6.949   1.211
 5192W        W12594   5.167   1.697   1.192
 5193W        W12595   2.200   6.471   2.628
 5194W        W12596  11.501   7.904   0.283
 5195W        W12597  10.522   4.076   8.843
 5196W        W12598  10.535   2.631   0.264
 5197W        W12599   8.548   5.965   0.761
 5198W        W12600   0.273   6.936   0.744
 5199W        W12601  19.279   8.335   8.338
 5200W        W12602   3.198   6.919   0.273
 5201W        W12603   9.039   3.112   1.677
 5202W        W12604  13.463   4.569   0.742
 5203W        W12605   7.111   9.304   1.196
 5204W        W12606   6.596   1.222   9.793
 5205W        W12607  10.016   0.734   9.310
 5206W        W12608  10.513   2.176   1.682
 5207W        W12609  14.887   3.132   1.227
 5208W        W12610   3.201   6.475   1.218
 5209W        W12611   7.120   2.638   9.797
 5210W        W12612  17.336   6.915   1.708
 5211W        W12613   9.557   9.318   9.316
 5212W        W12614   5.614   4.539   1.235
 5213W        W12615  14.421   4.062   8.824
 5214W        W12616  19.794   0.285   8.374
 5215W        W12617  11.465   9.286   0.238
 5216W        W12618  17.842   3.130   8.821
 5217W        W12619   8.584   4.081   2.185
 5218W        W12620  15.895   5.015   8.377
 5219W        W12621  16.834   7.894   9.798
 5220W        W12622  15.860   5.967   7.898
 5221W        W12623  16.375   6.464   8.348
 5222W        W12624   5.641   7.884   1.234
 5223W        W12625   9.025   9.298   2.152
 5224W        W12626   3.663   8.846   8.344
 5225W        W12627   2.713   4.092   7.885
 5226W        W12628  13.432   5.018   9.792
 5227W        W12629  10.520   8.810   8.818
 5228W        W12630   5.628   9.315   2.153
 5229W        W12631   2.696   2.652   1.215
 5230W        W12632  16.361   3.610   9.286
 5231W        W12633   7.577   8.336   9.775
 5232W        W12634  19.803   5.956   0.747
 5233W        W12635   8.553   8.337   0.264
 5234W        W12636  18.300   2.170   1.699
 5235W        W12637  11.491   3.130   9.779
 5236W        W12638   9.056   8.845   9.325
 5237W        W12639   2.225   1.689   2.169
 5238W        W12640   7.082   5.009   1.674
 5239W        W12641   3.699   5.969   8.378
 5240W        W12642   4.636   8.850   0.743
 5241W        W12643  19.794   7.899   8.360
 5242W        W12644  13.946   6.935   0.267
 5243W        W12645  14.426   8.362   8.356
 5244W        W12646  15.875   2.646   1.712
 5245W        W12647  14.909   9.309   9.770
 5246W        W12648   2.723   5.504   2.167
 5247W        W12649   2.237   8.856   9.779
 5248W        W12650  16.362   0.756   2.146
 5249W        W12651   2.212   0.743   0.715
 5250W        W12652  13.914   8.812   7.883
 5251W        W12653   6.126   3.117   9.794
 5252W        W12654   9.528   4.525   0.269
 5253W        W12655   6.624   9.787   9.320
 5254W        W12656  11.968   8.843   0.757
 5255W        W12657   1.724   0.264   7.427
 5256W        W12658  11.982   1.680   8.376
 5257W        W12659   1.268   6.456   0.745
 5258W        W12660   2.683   0.281   2.175
 5259W        W12661   7.606   9.762   9.313
 5260W        W12662  12.469   0.253   1.194
 5261W        W12663  10.489   8.834   8.378
 5262W        W12664  19.273   7.382   7.894
 5263W        W12665   4.169   5.992   1.201
 5264W        W12666  13.447   3.129   9.289
 5265W        W12667   0.733   4.091   1.667
 5266W        W12668   2.688   8.360   8.855
 5267W        W12669   6.117   7.863   1.222
 5268W        W12670   0.777   0.749   9.790
 5269W        W12671  11.507   6.454   2.652
 5270W        W12672  10.511   9.781   8.840
 5271W        W12673  14.895   6.927   7.883
 5272W        W12674  11.972   6.432   8.841
 5273W        W12675   7.111   0.756   1.213
 5274W        W12676   9.524   7.893   1.681
 5275W        W12677  18.316   1.225   7.422
 5276W        W12678  10.988   5.040   7.862
 5277W        W12679  17.362   2.181   0.269
 5278W        W12680   4.653   9.765   7.897
 5279W        W12681  10.986   9.287   9.330
 5280W        W12682   8.581   5.509   1.204
 5281W        W12683  12.473   6.448   9.299
 5282W        W12684   0.742   5.004   2.155
 5283W        W12685  13.940   2.632   9.322
 5284W        W12686  17.360   3.601   1.198
 5285W        W12687  16.843   3.103   8.852
 5286W        W12688   4.679   8.852   9.791
 5287W        W12689   8.538   3.127   2.175
 5288W        W12690   9.524   2.144   9.771
 5289W        W12691  12.462   8.339   9.292
 5290W        W12692   3.676   1.704   2.186
 5291W        W12693  14.906   4.083   2.182
 5292W        W12694  19.270   7.884   0.245
 5293W        W12695  10.490   8.852   0.244
 5294W        W12696   3.195   1.713   8.852
 5295W        W12697   6.605   7.426   0.747
 5296W        W12698   1.725   9.299   1.691
 5297W        W12699  18.331   3.133   2.174
 5298W        W12700  12.963   7.877   9.782
 5299W        W12701  18.315   1.206   1.710
 5300W        W12702   4.637   8.361   9.331
 5301W        W12703  14.420   5.484   2.649
 5302W        W12704  13.943   5.982   9.801
 5303W        W12705   4.148   5.043   7.859
 5304W        W12706  11.502   9.326   0.714
 5305W        W12707  15.388   6.475   8.849
 5306W        W12708  19.801   5.507   1.213
 5307W        W12709   2.199   0.264   1.689
 5308W        W12710  10.526   3.114   8.840
 5309W        W12711   6.604   3.598   9.806
 5310W        W12712  11.475   0.733   0.238
 5311W        W12713   9.520   1.211   1.684
 5312W        W12714   5.630   4.537   1.713
 5313W        W12715   8.076   9.320   2.172
 5314W        W12716   2.713   1.692   2.186
 5315W        W12717  10.497   1.697   8.365
 5316W        W12718  14.901   6.465   9.778
 5317W        W12719  18.317   1.201   8.843
 5318W        W12720  11.970   4.077   1.220
 5319W        W12721   2.234   9.785   7.392
 5320W        W12722   9.062   4.061   2.156
 5321W        W12723  15.375   3.098   9.808
 5322W        W12724   6.602   7.893   9.796
 5323W        W12725   1.709   4.093   7.382
 5324W        W12726  18.828   3.608   7.858
 5325W        W12727  14.420   9.325   8.812
 5326W        W12728  13.461   8.378   8.815
 5327W        W12729  11.489   4.564   1.707
 5328W        W12730   3.178   3.122   8.816
 5329W        W12731  16.386   5.985   8.340
 5330W        W12732   5.151   5.976   7.893
 5331W        W12733   1.749   2.181   9.801
 5332W        W12734   6.119   8.824   1.220
 5333W        W12735  17.817   9.287   8.842
 5334W        W12736   9.053   4.564   8.831
 5335W        W12737  16.859   3.572   9.794
 5336W        W12738   6.139   6.450   8.812
 5337W        W12739  12.974   7.387   9.795
 5338W        W12740  16.364   0.733   1.679
 5339W        W12741  16.381   0.262   9.780
 5340W        W12742   6.138   7.882   9.781
 5341W        W12743  11.996   7.408   8.348
 5342W        W12744   3.701   0.242   7.859
 5343W        W12745  12.958   5.505   8.854
 5344W        W12746   4.152   5.998   9.791
 5345W        W12747  13.440   7.384   0.269
 5346W        W12748  10.028   8.361   0.257
 5347W        W12749  18.323   6.436   1.213
 5348W        W12750   6.631   7.884   0.244
 5349W        W12751   1.749   8.835   1.234
 5350W        W12752   9.526   1.225   9.775
 5351W        W12753   5.653   5.022   0.282
 5352W        W12754   4.638   8.345   0.751
 5353W        W12755  17.353   4.066   0.273
 5354W        W12756   0.279   5.023   0.756
 5355W        W12757  14.402   0.730   1.217
 5356W        W12758   8.053   0.243   0.729
 5357W        W12759   3.695   3.604   7.896
 5358W        W12760   2.217   3.106   0.762
 5359W        W12761   0.740   8.855   9.331
 5360W        W12762  15.382   5.519   9.789
 5361W        W12763   5.649   8.365   1.687
 5362W        W12764  10.978   5.482   7.873
 5363W        W12765  11.493   6.454   1.230
 5364W        W12766  16.374   7.399   0.274
 5365W        W12767  12.973   2.181   0.256
 5366W        W12768   2.211   9.776   9.294
 5367W        W12769  11.973   8.358   0.260
 5368W        W12770   8.057   1.195   2.171
 5369W        W12771  17.839   7.405   8.358
 5370W        W12772   5.646   6.945   1.211
 5371W        W12773  13.943   0.719   0.759
 5372W        W12774   4.192   0.249   1.707
 5373W        W12775   6.128   5.960   9.333
 5374W        W12776   3.704   2.647   2.626
 5375W        W12777   3.197   9.788   0.717
 5376W        W12778  17.361   4.555   0.263
 5377W        W12779  16.846   9.802   0.265
 5378W        W12780   0.262   2.148   8.353
 5379W        W12781   9.069   2.632   0.721
 5380W        W12782   5.145   2.646   1.218
 5381W        W12783  11.476   7.403   7.407
 5382W        W12784  15.412   9.770   9.766
 5383W        W12785  16.840   1.209   9.328
 5384W        W12786   3.173   6.447   8.821
 5385W        W12787  19.796   3.125   0.746
 5386W        W12788  17.338   6.433   2.164
 5387W        W12789  10.011   3.619   8.371
 5388W        W12790  11.008   4.549   1.203
 5389W        W12791  18.803   4.081   8.810
 5390W        W12792  18.826   3.139   2.187
 5391W        W12793  18.321   3.102   0.755
 5392W        W12794  11.977   1.205   1.224
 5393W        W12795   4.643   6.468   0.256
 5394W        W12796   7.571   3.574   0.752
 5395W        W12797   5.122   7.421   8.814
 5396W        W12798   8.552   3.101   9.804
 5397W        W12799  15.413   8.380   0.267
 5398W        W12800   2.216   7.394   8.367
 5399W        W12801   4.187   0.276   9.784
 5400W        W12802  13.438   7.884   9.775
 5401W        W12803  17.359   2.190   0.738
 5402W        W12804   8.066   5.025   2.153
 5403W        W12805   3.676   6.924   0.742
 5404W        W12806  14.399   4.072   1.231
 5405W        W12807   1.230   9.800   9.324
 5406W        W12808  19.773   4.535   1.191
 5407W        W12809   7.074   7.882   9.287
 5408W        W12810  10.040   2.665   1.708
 5409W        W12811   0.244   7.868   1.238
 5410W        W12812  19.295   1.200   2.148
 5411W        W12813   3.700   9.308   9.315
 5412W        W12814  12.945   1.709   1.227
 5413W        W12815   7.604   1.707   9.314
 5414W        W12816   3.210   5.978   9.307
 5415W        W12817   7.081   3.612   8.362
 5416W        W12818  12.445   6.946   9.330
 5417W        W12819  18.797   1.682   9.807
 5418W        W12820   4.648   5.974   8.820
 5419W        W12821   3.681   5.022   0.255
 5420W        W12822   8.063   0.247   1.691
 5421W        W12823   6.609   9.317   9.329
 5422W        W12824   7.109   8.851   8.846
 5423W        W12825  18.324   9.764   8.357
 5424W        W12826   7.107   4.559   9.766
 5425W        W12827  15.896   4.526   2.155
 5426W        W12828  13.451   2.176   2.647
 5427W        W12829   5.150   5.972   2.173
 5428W        W12830  12.464   5.016   7.898
 5429W        W12831  18.329   8.845   0.718
 5430W        W12832  10.034   9.316   1.682
 5431W        W12833   4.654   5.508   1.710
 5432W        W12834  16.356   1.677   7.863
 5433W        W12835  12.450   5.485   1.214
 5434W        W12836   3.701   7.419   8.815
 5435W        W12837  11.500   3.610   2.148
 5436W        W12838   6.117   9.787   0.251
 5437W        W12839  18.785   4.073   9.301
 5438W        W12840   0.262   3.616   9.322
 5439W        W12841  12.485   9.327   8.817
 5440W        W12842   2.697   4.547   1.695
 5441W        W12843  18.798   1.214   1.668
 5442W        W12844   2.718   6.441   0.755
 5443W        W12845   0.770   5.977   8.340
 5444W        W12846  10.516   1.691   2.182
 5445W        W12847  15.368   3.112   8.356
 5446W        W12848  13.905   3.116   8.840
 5447W        W12849  15.393   8.338   8.359
 5448W        W12850  11.972   9.789   0.723
 5449W        W12851   6.144   1.709   0.244
 5450W        W12852   7.589   1.195   8.837
 5451W        W12853   3.189   1.693   1.225
 5452W        W12854  11.495   2.180   8.840
 5453W        W12855   1.752   4.065   7.878
 5454W        W12856  15.892   8.838   0.739
 5455W        W12857   8.566   1.697   8.850
 5456W        W12858  17.836   3.609   2.148
 5457W        W12859   1.262   5.003   9.805
 5458W        W12860  12.452   6.941   7.858
 5459W        W12861   1.720   9.781   0.284
 5460W        W12862   2.725   2.652   7.889
 5461W        W12863   1.231   0.719   1.195
 5462W        W12864  19.777   1.671   0.754
 5463W        W12865   7.578   3.575   7.858
 5464W        W12866   0.755   1.231   1.193
 5465W        W12867   2.233   3.105   8.333
 5466W        W12868   5.618   7.888   9.317
 5467W        W12869   7.074   5.021   8.374
 5468W        W12870  10.036   3.583   0.252
 5469W        W12871   2.207   8.829   8.851
 5470W        W12872  10.989   0.280   9.787
 5471W        W12873   7.576   4.079   0.720
 5472W        W12874  18.820   5.035   8.829
 5473W        W12875  17.366   1.672   1.714
 5474W        W12876   5.128   2.180   0.279
 5475W        W12877   7.100   2.640   2.651
 5476W        W12878   6.598   8.338   7.877
 5477W        W12879   0.264   4.563   2.169
 5478W        W12880  17.363   8.343   8.854
 5479W        W12881   5.150   9.316   1.195
 5480W        W12882   0.249   7.415   2.160
 5481W        W12883  14.434   9.766   7.385
 5482W        W12884  14.420   5.491   8.832
 5483W        W12885   9.038   0.735   7.398
 5484W        W12886   7.567   3.098   0.725
 5485W        W12887  17.323   6.921   0.281
 5486W        W12888  10.031   2.641   9.774
 5487W        W12889  16.361   6.946   8.348
 5488W        W12890   2.685   7.411   7.871
 5489W        W12891   5.129   0.729   9.790
 5490W        W12892   1.223   6.938   1.684
 5491W        W12893   9.037   3.132   2.170
 5492W        W12894  10.498   4.065   9.329
 5493W        W12895   5.643   3.614   0.266
 5494W        W12896  10.536   2.182   1.227
 5495W        W12897   6.136   3.116   0.737
 5496W        W12898   0.266   8.841   9.290
 5497W        W12899  13.447   2.171   3.130
 5498W        W12900   1.232   3.610   0.735
 5499W        W12901   7.596   8.361   7.420
 5500W        W12902   4.681   5.003   9.320
 5501W        W12903   9.055   0.721   2.160
 5502W        W12904  16.345   0.255   1.701
 5503W        W12905  18.326   2.186   8.350
 5504W        W12906   0.275   7.886   2.144
 5505W        W12907  11.981   5.969   1.675
 5506W        W12908   1.738   0.737   1.688
 5507W        W12909   4.683   3.133   1.675
 5508W        W12910   4.152   2.636   1.216
 5509W        W12911   6.591   3.118   9.767
 5510W        W12912  13.419   6.933   2.174
 5511W        W12913  12.442   2.163   1.214
 5512W        W12914   3.669   7.859   1.667
 5513W        W12915   2.220   4.551   9.310
 5514W        W12916  19.776   5.001   9.322
 5515W        W12917   9.539   5.018   8.339
 5516W        W12918   0.276   0.267   7.884
 5517W        W12919   8.579   6.437   0.723
 5518W        W12920  14.913   0.761   0.243
 5519W        W12921   5.634   1.196   2.189
 5520W        W12922   3.699   0.275   9.786
 5521W        W12923  12.954   9.791   8.362
 5522W        W12924   0.745   9.325   2.146
 5523W        W12925   6.112   7.879   8.380
 5524W        W12926   3.678   3.127   2.148
 5525W        W12927   8.572   7.394   9.792
 5526W        W12928   4.157   3.141   8.821
 5527W        W12929  14.419   9.785   8.354
 5528W        W12930  18.824   6.465   1.698
 5529W        W12931  13.906   2.152   9.333
 5530W        W12932   6.593   1.201   1.192
 5531W        W12933   2.718   8.372   9.332
 5532W        W12934   6.591   9.786   7.903
 5533W        W12935  18.829   6.920   9.767
 5534W        W12936   3.211   8.823   0.280
 5535W        W12937   3.181   3.605   7.883
 5536W        W12938  11.976   2.159   8.375
 5537W        W12939  10.983   1.674   1.235
 5538W        W12940  17.829   3.142   7.426
 5539W        W12941   4.156   5.498   0.263
 5540W        W12942   7.083   6.444   8.817
 5541W        W12943   0.778   2.656   2.154
 5542W        W12944   2.708   5.511   0.252
 5543W        W12945   1.237   0.746   0.744
 5544W        W12946  18.803   4.078   7.867
 5545W        W12947  17.853   2.652   7.896
 5546W        W12948   1.709   7.427   2.634
 5547W        W12949   0.745   0.264   0.274
 5548W        W12950   4.635   6.465   9.294
 5549W        W12951   2.687   4.549   8.343
 5550W        W12952  14.903   8.342   8.846
 5551W        W12953   3.184   6.453   0.272
 5552W        W12954  11.477   8.824   1.691
 5553W        W12955  16.842   3.141   8.378
 5554W        W12956   9.072   6.447   9.328
 5555W        W12957  16.875   2.179   1.692
 5556W        W12958   3.213   0.752   8.833
 5557W        W12959   0.736   1.673   7.897
 5558W        W12960  14.412   2.167   9.770
 5559W        W12961   0.747   7.861   0.256
 5560W        W12962  12.442   5.990   1.222
 5561W        W12963  18.822   4.571   9.324
 5562W        W12964   9.530   0.728   8.380
 5563W        W12965  18.822   1.692   0.740
 5564W        W12966  12.466   9.330   0.724
 5565W        W12967   0.275   0.734   9.769
 5566W        W12968   6.125   6.463   2.625
 5567W        W12969  13.437   3.604   2.184
 5568W        W12970   6.607   4.535   9.796
 5569W        W12971  18.317   1.220   0.252
 5570W        W12972  15.901   6.948   7.399
 5571W        W12973   7.592   1.699   9.800
 5572W        W12974  16.351   8.369   8.361
 5573W        W12975   6.627   4.090   2.147
 5574W        W12976  12.469   2.165   0.267
 5575W        W12977  16.355   7.891   8.844
 5576W        W12978   4.185   4.531   9.316
 5577W        W12979  10.490   6.919   0.743
 5578W        W12980   5.133   6.447   1.695
 5579W        W12981   8.584   0.729   9.308
 5580W        W12982   6.108   4.074   9.806
 5581W        W12983  18.329   4.067   7.886
 5582W        W12984  11.511   9.792   7.893
 5583W        W12985   8.543   1.236   1.208
 5584W        W12986  13.936   2.627   1.677
 5585W        W12987  12.956   2.156   1.237
 5586W        W12988   9.031   8.830   8.816
 5587W        W12989   2.239   5.964   0.756
 5588W        W12990   9.054   5.007   7.895
 5589W        W12991   4.170   0.756   1.683
 5590W        W12992  10.499   2.163   0.725
 5591W        W12993   8.558   5.012   2.186
 5592W        W12994   9.520   5.499   0.273
 5593W        W12995  18.794   0.717   8.344
 5594W        W12996  13.905   5.998   1.692
 5595W        W12997  17.827   6.937   0.744
 5596W        W12998  15.860   1.699   9.294
 5597W        W12999  12.934   1.681   0.262
 5598W        W13000   8.081   4.568   0.282
 5599W        W13001  15.859   0.718   8.810
 5600W        W13002   3.193   5.009   9.770
 5601W        W13003  10.506   6.939   2.166
 5602W        W13004  15.863   1.222   9.763
 5603W        W13005  17.827   7.410   7.900
 5604W        W13006  12.464   2.638   7.877
 5605W        W13007  13.419   1.223   0.247
 5606W        W13008   3.179   4.067   0.750
 5607W        W13009   4.186   5.039   1.191
 5608W        W13010   6.124   2.640   8.344
 5609W        W13011   8.550   2.149   9.305
 5610W        W13012   5.654   5.983   9.288
 5611W        W13013   1.718   0.243   8.839
 5612W        W13014  16.861   0.724   9.329
 5613W        W13015  13.460   1.227   1.707
 5614W        W13016  14.399   5.033   8.832
 5615W        W13017  17.356   1.231   2.148
 5616W        W13018  11.999   2.178   1.223
 5617W        W13019   4.637   2.626   0.245
 5618W        W13020   2.692   5.039   0.725
 5619W        W13021   4.681   4.545   2.154
 5620W        W13022   2.231   8.372   8.853
 5621W        W13023   8.096   2.622   8.362
 5622W        W13024   2.700   4.050   9.328
 5623W        W13025  19.285   2.619   1.237
 5624W        W13026   3.691   4.563   1.684
 5625W        W13027  16.381   5.497   8.380
 5626W        W13028   5.646   5.979   1.688
 5627W        W13029   6.586   5.523   7.869
 5628W        W13030  15.871   8.356   7.392
 5629W        W13031  11.992   8.348   9.289
 5630W        W13032  16.856   1.213   7.903
 5631W        W13033  10.040   8.357   8.856
 5632W        W13034  19.764   4.558   8.364
 5633W        W13035  19.759   4.567   0.240
 5634W        W13036  14.421   5.966   9.791
 5635W        W13037   1.248   3.100   8.846
 5636W        W13038   1.726   8.380   9.782
 5637W        W13039  19.278   4.548   0.748
 5638W        W13040  18.783   3.108   8.825
 5639W        W13041  14.878   0.740   8.812
 5640W        W13042  16.356   0.264   8.839
 5641W        W13043  11.993   1.202   1.672
 5642W        W13044  11.475   2.665   9.776
 5643W        W13045   2.730   6.474   9.325
 5644W        W13046   6.098   0.269   9.800
 5645W        W13047   3.674   4.551   0.741
 5646W        W13048  15.404   1.200   0.273
 5647W        W13049  16.870   2.644   9.796
 5648W        W13050  10.503   4.568   7.383
 5649W        W13051  10.533   1.223   1.685
 5650W        W13052  10.517   5.514   2.171
 5651W        W13053  11.471   2.620   0.730
 5652W        W13054   8.553   6.938   8.362
 5653W        W13055  17.817   4.548   7.904
 5654W        W13056  16.369   8.347   8.820
 5655W        W13057  11.024   6.462   9.319
 5656W        W13058   0.263   3.126   7.903
 5657W        W13059  17.360   0.723   1.682
 5658W        W13060   6.110   8.372   1.693
 5659W        W13061  15.372   0.285   8.851
 5660W        W13062  13.446   4.082   1.689
 5661W        W13063   3.176   4.564   1.238
 5662W        W13064  11.976   3.608   7.871
 5663W        W13065  18.319   4.562   1.222
 5664W        W13066   4.665   0.264   9.302
 5665W        W13067  18.827   7.427   2.149
 5666W        W13068  14.897   3.140   1.699
 5667W        W13069  12.933   5.960   0.276
 5668W        W13070  14.888   1.701   9.331
 5669W        W13071  11.484   0.744   9.303
 5670W        W13072  17.813   1.191   9.304
 5671W        W13073   8.097   8.834   1.675
 5672W        W13074   5.148   7.388   9.776
 5673W        W13075   9.551   6.914   8.356
 5674W        W13076  19.306   1.228   8.821
 5675W        W13077  13.940   4.089   7.868
 5676W        W13078   1.248   3.613   7.895
 5677W        W13079  10.039   5.514   7.862
 5678W        W13080   6.111   1.230   9.799
 5679W        W13081   3.187   0.759   1.711
 5680W        W13082  17.816   9.765   1.206
 5681W        W13083   1.237   0.284   7.893
 5682W        W13084   0.274   2.165   1.202
 5683W        W13085   1.245   4.526   9.805
 5684W        W13086  12.951   3.609   0.751
 5685W        W13087  15.885   4.530   9.794
 5686W        W13088  13.422   1.224   7.903
 5687W        W13089   8.074   6.941   9.329
 5688W        W13090   3.677   7.889   9.310
 5689W        W13091   1.754   6.919   1.709
 5690W        W13092   2.709   8.841   0.729
 5691W        W13093   8.574   0.736   9.800
 5692W        W13094   3.668   3.598   0.727
 5693W        W13095   1.732   6.929   9.291
 5694W        W13096   6.135   7.860   9.329
 5695W        W13097   3.198   3.108   8.365
 5696W        W13098  11.999   8.370   1.668
 5697W        W13099  13.942   9.317   1.675
 5698W        W13100  14.429   5.043   1.679
 5699W        W13101   6.607   2.155   7.884
 5700W        W13102  12.974   3.580   7.392
 5701W        W13103  17.813   1.707   8.827
 5702W        W13104   0.741   4.561   7.877
 5703W        W13105  14.893   5.014   8.334
 5704W        W13106   6.595   9.289   0.754
 5705W        W13107  14.917   1.205   0.284
 5706W        W13108  12.959   1.209   8.849
 5707W        W13109   5.130   5.481   2.623
 5708W        W13110  16.351   4.549   9.316
 5709W        W13111   5.132   7.396   0.245
 5710W        W13112   5.657   2.177   1.206
 5711W        W13113  16.840   6.912   0.728
 5712W        W13114   8.054   0.752   8.822
 5713W        W13115  13.915   5.519   8.828
 5714W        W13116   8.553   0.279   0.715
 5715W        W13117  19.768   5.036   1.705
 5716W        W13118  13.417   0.266   8.828
 5717W        W13119  15.896   5.968   9.774
 5718W        W13120   0.734   6.932   1.230
 5719W        W13121  11.993   1.707   2.189
 5720W        W13122  14.411   6.458   1.201
 5721W        W13123   8.538   9.787   8.823
 5722W        W13124  14.897   3.572   2.639
 5723W        W13125   0.278   1.685   2.183
 5724W        W13126  13.951   9.770   2.634
 5725W        W13127   7.597   3.108   0.263
 5726W        W13128   6.111   3.580   8.371
 5727W        W13129  18.821   8.813   0.735
 5728W        W13130  14.394   8.380   0.721
 5729W        W13131  14.919   7.395   7.860
 5730W        W13132   2.206   5.520   8.816
 5731W        W13133   7.601   5.491   0.243
 5732W        W13134   8.582   0.283   8.356
 5733W        W13135   6.117   4.084   7.898
 5734W        W13136   9.519   5.004   0.757
 5735W        W13137   8.537   9.771   0.268
 5736W        W13138   5.625   0.239   0.726
 5737W        W13139  15.391   7.888   0.245
 5738W        W13140   4.181   7.391   2.187
 5739W        W13141   0.267   9.784   1.669
 5740W        W13142   8.545   3.108   1.219
 5741W        W13143  18.827   7.883   8.823
 5742W        W13144  15.882   3.610   0.745
 5743W        W13145  10.005   5.043   8.839
 5744W        W13146  15.870   0.756   0.260
 5745W        W13147   5.617   6.914   7.886
 5746W        W13148  13.456   1.704   0.244
 5747W        W13149  12.473   8.852   9.323
 5748W        W13150  15.371   3.105   1.234
 5749W        W13151   7.596   7.399   7.886
 5750W        W13152   2.713   1.213   8.334
 5751W        W13153  15.893   7.396   8.843
 5752W        W13154  17.359   6.925   1.199
 5753W        W13155  10.509   9.332   8.822
 5754W        W13156  13.918   2.639   8.351
 5755W        W13157   8.582   1.231   8.857
 5756W        W13158  16.837   8.354   1.195
 5757W        W13159   0.779   1.686   9.780
 5758W        W13160  14.881   6.458   1.672
 5759W        W13161   2.201   5.967   7.857
 5760W        W13162  15.859   1.694   0.735
 5761W        W13163   6.606   1.701   0.760
 5762W        W13164  11.987   6.932   8.351
 5763W        W13165  18.331   5.980   0.280
 5764W        W13166   7.077   0.254   1.714
 5765W        W13167  14.881   2.651   1.222
 5766W        W13168  11.983   0.257   1.682
 5767W        W13169  13.434   4.539   8.816
 5768W        W13170   5.157   4.057   1.197
 5769W        W13171   7.089   5.493   6.906
 5770W        W13172   9.065   2.147   0.240
 5771W        W13173   2.691   6.949   8.820
 5772W        W13174  18.340   6.921   9.312
 5773W        W13175  13.928   8.365   8.335
 5774W        W13176  15.884   4.536   0.280
 5775W        W13177   2.725   1.192   9.301
 5776W        W13178   2.694   3.108   9.291
 5777W        W13179   0.291   8.373   2.175
 5778W        W13180   9.524   8.855   8.840
 5779W        W13181  16.861   0.244   9.289
 5780W        W13182   7.091   8.850   9.315
 5781W        W13183   3.694   2.179   7.427
 5782W        W13184  15.887   1.210   2.164
 5783W        W13185   9.037   9.330   0.255
 5784W        W13186  12.958   0.725   0.284
 5785W        W13187  11.470   1.218   8.364
 5786W        W13188   1.735   9.303   2.163
 5787W        W13189   7.082   2.151   0.285
 5788W        W13190  17.839   8.358   0.722
 5789W        W13191  11.999   3.103   9.798
 5790W        W13192   6.104   5.961   1.205
 5791W        W13193  14.892   9.803   8.373
 5792W        W13194   7.589   7.385   8.361
 5793W        W13195   2.688   1.693   0.740
 5794W        W13196  15.371   4.056   9.305
 5795W        W13197  11.504   6.952   8.373
 5796W        W13198   4.642   1.696   0.761
 5797W        W13199  17.357   4.054   9.327
 5798W        W13200   5.658   4.079   0.263
 5799W        W13201  18.785   9.302   1.704
 5800W        W13202  15.889   5.990   8.352
 5801W        W13203   4.169   1.668   0.722
 5802W        W13204  10.982   1.696   7.386
 5803W        W13205   8.583   3.110   9.320
 5804W        W13206   8.067   0.755   9.796
 5805W        W13207   3.693   3.601   1.705
 5806W        W13208   0.772   5.522   9.780
 5807W        W13209   8.585   2.623   9.303
 5808W        W13210   4.174   9.315   9.790
 5809W        W13211   5.135   3.108   9.299
 5810W        W13212   9.051   2.171   1.215
 5811W        W13213   7.566   0.249   1.695
 5812W        W13214   0.252   6.945   8.827
 5813W        W13215  15.403   0.249   9.777
 5814W        W13216  12.946   8.822   9.772
 5815W        W13217  13.904   3.120   0.263
 5816W        W13218   9.066   7.390   2.153
 5817W        W13219   7.583   5.494   2.160
 5818W        W13220  12.936   1.681   0.723
 5819W        W13221   7.570   0.737   0.269
 5820W        W13222  19.273   4.557   9.325
 5821W        W13223   8.579   7.384   2.168
 5822W        W13224  15.374   8.343   1.207
 5823W        W13225  18.319   4.540   0.263
 5824W        W13226  10.510   4.079   2.159
 5825W        W13227  19.310   5.479   8.351
 5826W        W13228   1.750   5.998   7.886
 5827W        W13229   7.606   1.219   7.879
 5828W        W13230  16.381   6.461   2.190
 5829W        W13231   3.172   1.671   2.154
 5830W        W13232  17.819   5.008   8.348
 5831W        W13233   0.264   9.333   2.157
 5832W        W13234  17.360   0.277   8.361
 5833W        W13235   8.061   7.400   7.871
 5834W        W13236  18.823   3.585   1.682
 5835W        W13237   1.252   5.016   1.682
 5836W        W13238   6.100   2.168   7.889
 5837W        W13239  17.342   8.377   8.377
 5838W        W13240  16.867   7.407   8.353
 5839W        W13241  14.401   9.307   1.713
 5840W        W13242  17.364   1.689   7.869
 5841W        W13243   6.620   2.187   0.732
 5842W        W13244   5.635   3.126   9.288
 5843W        W13245  17.363   8.355   1.693
 5844W        W13246  15.400   4.093   0.716
 5845W        W13247   7.084   2.177   8.851
 5846W        W13248   9.037   6.447   9.785
 5847W        W13249  19.778   7.423   0.724
 5848W        W13250  11.996   9.799   8.351
 5849W        W13251   5.162   1.697   2.175
 5850W        W13252   8.097   4.556   8.364
 5851W        W13253   7.113   3.131   8.848
 5852W        W13254  18.803   3.142   8.335
 5853W        W13255   6.112   2.646   9.801
 5854W        W13256   4.148   1.697   7.891
 5855W        W13257   4.679   7.890   8.374
 5856W        W13258   8.571   8.828   1.200
 5857W        W13259  10.527   0.249   0.244
 5858W        W13260   2.209   7.405   0.249
 5859W        W13261  19.790   7.889   9.302
 5860W        W13262   1.236   9.297   8.822
 5861W        W13263  16.378   8.842   2.181
 5862W        W13264   4.153   0.726   7.424
 5863W        W13265   4.641   9.778   2.179
 5864W        W13266   8.070   1.711   7.903
 5865W        W13267  11.503   2.167   1.680
 5866W        W13268  11.024   1.701   9.763
 5867W        W13269  15.876   6.450   1.238
 5868W        W13270  10.529   1.233   8.341
 5869W        W13271  17.836   9.781   8.819
 5870W        W13272   4.167   3.614   1.207
 5871W        W13273   5.140   7.897   9.795
 5872W        W13274   5.633   2.177   8.343
 5873W        W13275  11.009   0.252   1.218
 5874W        W13276   6.627   1.702   8.379
 5875W        W13277  14.439   4.563   0.279
 5876W        W13278   7.101   5.011   1.202
 5877W        W13279   0.268   7.401   1.667
 5878W        W13280  12.446   5.020   2.637
 5879W        W13281  19.791   1.199   8.375
 5880W        W13282  12.974   0.273   8.335
 5881W        W13283  13.951   4.077   0.267
 5882W        W13284  10.033   5.518   1.215
 5883W        W13285   8.080   3.582   7.858
 5884W        W13286  19.297   3.598   2.171
 5885W        W13287  10.496   0.728   8.841
 5886W        W13288  12.467   1.237   2.642
 5887W        W13289   2.715   6.925   2.162
 5888W        W13290  10.048   7.395   7.904
 5889W        W13291  19.803   9.800   0.255
 5890W        W13292  19.278   0.717   0.726
 5891W        W13293  13.950   2.651   7.412
 5892W        W13294   8.554   6.441   9.328
 5893W        W13295   8.081   4.561   9.808
 5894W        W13296   1.713   7.888   9.795
 5895W        W13297   5.625   0.757   8.350
 5896W        W13298  10.993   4.072   7.894
 5897W        W13299   3.670   4.049   7.901
 5898W        W13300   9.029   9.322   0.758
 5899W        W13301   2.714   7.879   9.322
 5900W        W13302   1.723   5.047   0.750
 5901W        W13303  18.806   0.257   7.883
 5902W        W13304  18.826   7.407   8.811
 5903W        W13305  12.948   4.083   9.762
 5904W        W13306   3.212   4.535   0.754
 5905W        W13307   3.695   2.652   2.164
 5906W        W13308  13.422   4.545   1.669
 5907W        W13309  17.359   9.304   1.687
 5908W        W13310   7.597   1.192   0.741
 5909W        W13311   3.662   2.145   8.810
 5910W        W13312   1.735   5.998   2.155
 5911W        W13313  11.506   9.294   2.652
 5912W        W13314  12.461   9.778   1.677
 5913W        W13315   8.553   5.991   8.810
 5914W        W13316  17.833   1.221   2.152
 5915W        W13317   1.267   3.579   9.317
 5916W        W13318  19.802   5.004   2.152
 5917W        W13319  13.424   6.942   0.726
 5918W        W13320   0.740   6.945   8.833
 5919W        W13321  16.872   5.967   2.635
 5920W        W13322  15.860   7.427   7.865
 5921W        W13323  13.940   1.702   9.772
 5922W        W13324  18.315   2.144   8.857
 5923W        W13325   6.124   9.310   2.174
 5924W        W13326  16.359   8.362   0.277
 5925W        W13327   9.069   9.806   1.206
 5926W        W13328  11.511   8.373   8.832
 5927W        W13329   2.214   4.076   1.234
 5928W        W13330  17.347   8.834   9.806
 5929W        W13331   4.678   0.744   9.763
 5930W        W13332   2.714   9.305   1.668
 5931W        W13333  11.488   5.032   0.744
 5932W        W13334  16.386   3.131   9.300
 5933W        W13335   9.057   2.169   0.725
 5934W        W13336  18.791   8.817   2.170
 5935W        W13337   3.689   7.883   8.820
 5936W        W13338  13.903   8.813   8.836
 5937W        W13339   2.704   5.984   8.342
 5938W        W13340  14.905   5.504   0.721
 5939W        W13341   9.033   7.395   0.739
 5940W        W13342   3.173   0.738   7.899
 5941W        W13343   0.755   3.615   2.146
 5942W        W13344  19.781   7.424   8.353
 5943W        W13345   4.181   7.885   1.702
 5944W        W13346  16.385   4.071   1.701
 5945W        W13347  11.987   6.435   7.874
 5946W        W13348  12.930   1.227   0.254
 5947W        W13349   4.164   5.505   2.147
 5948W        W13350  19.780   5.517   7.902
 5949W        W13351  14.902   9.319   0.256
 5950W        W13352   0.277   8.839   1.667
 5951W        W13353   0.250   8.845   8.848
 5952W        W13354   5.166   0.262   9.806
 5953W        W13355   3.684   9.317   9.773
 5954W        W13356  15.871   3.587   8.819
 5955W        W13357  19.787   3.116   9.796
 5956W        W13358   7.112   2.621   9.324
 5957W        W13359  11.984   6.914   9.802
 5958W        W13360   6.104   0.742   2.180
 5959W        W13361  13.919   8.357   9.774
 5960W        W13362   7.569   5.983   0.752
 5961W        W13363  10.048   3.576   8.841
 5962W        W13364   0.757   8.830   0.739
 5963W        W13365  14.411   3.118   0.243
 5964W        W13366   6.608   6.907   1.694
 5965W        W13367  14.413   1.237   1.219
 5966W        W13368   2.232   2.169   7.871
 5967W        W13369  18.316   7.403   8.354
 5968W        W13370   6.113   5.966   7.881
 5969W        W13371   3.204   5.017   0.722
 5970W        W13372  14.922   9.781   0.243
 5971W        W13373  10.980   7.860   2.172
 5972W        W13374   5.171   1.222   0.253
 5973W        W13375   6.630   5.039   8.369
 5974W        W13376  12.949   5.011   8.381
 5975W        W13377   2.207   3.612   9.785
 5976W        W13378   8.086   9.783   2.188
 5977W        W13379   3.664   8.346   0.259
 5978W        W13380   3.666   6.469   8.835
 5979W        W13381   5.158   0.267   1.687
 5980W        W13382   2.686   6.937   9.776
 5981W        W13383  11.996   6.910   7.867
 5982W        W13384  14.421   4.077   1.668
 5983W        W13385  10.011   0.257   1.709
 5984W        W13386   5.632   0.273   7.864
 5985W        W13387  15.855   2.644   8.347
 5986W        W13388   8.571   0.736   1.676
 5987W        W13389   9.030   5.482   2.147
 5988W        W13390  11.019   5.521   8.369
 5989W        W13391  17.365   0.247   1.215
 5990W        W13392  17.362   1.213   9.803
 5991W        W13393  17.823   3.103   0.741
 5992W        W13394  10.525   8.825   1.238
 5993W        W13395  11.023   3.581   1.705
 5994W        W13396   8.049   8.371   7.895
 5995W        W13397  15.390   7.428   9.791
 5996W        W13398   6.114   9.795   2.157
 5997W        W13399  14.884   5.970   1.197
 5998W        W13400  11.489   3.583   1.684
 5999W        W13401   0.252   8.854   9.804
 6000W        W13402   6.125   9.320   2.656
 6001W        W13403  17.343   6.458   9.799
 6002W        W13404   3.663   0.722   1.229
 6003W        W13405  17.344   5.045   8.366
 6004W        W13406   5.152   2.619   7.898
 6005W        W13407  17.815   8.364   1.203
 6006W        W13408  11.015   3.603   0.250
 6007W        W13409   5.631   0.723   0.718
 6008W        W13410   8.067   9.291   8.821
 6009W        W13411   0.269   8.838   7.879
 6010W        W13412  16.390   9.286   0.244
 6011W        W13413  12.935   7.410   1.216
 6012W        W13414   1.224   0.276   8.850
 6013W        W13415  19.781   6.950   2.173
 6014W        W13416  10.005   7.411   8.369
 6015W        W13417  16.862   1.672   9.304
 6016W        W13418   5.126   9.766   8.820
 6017W        W13419   9.049   5.517   9.762
 6018W        W13420   1.256   0.748   7.869
 6019W        W13421  10.532   9.326   1.210
 6020W        W13422  19.269   0.257   8.356
 6021W        W13423   1.237   9.319   9.790
 6022W        W13424   3.198   3.097   7.885
 6023W        W13425   0.755   0.752   7.901
 6024W        W13426   2.238   7.861   9.288
 6025W        W13427  13.917   9.297   8.820
 6026W        W13428  15.403   1.195   9.764
 6027W        W13429  12.959   7.875   8.811
 6028W        W13430  15.888   0.746   9.774
 6029W        W13431  13.450   9.785   0.271
 6030W        W13432  16.870   1.215   9.781
 6031W        W13433  11.962   5.512   8.349
 6032W        W13434  16.350   5.035   2.168
 6033W        W13435  19.306   0.273   8.823
 6034W        W13436   2.218   4.087   0.757
 6035W        W13437   8.097   4.562   1.221
 6036W        W13438  16.356   6.935   0.255
 6037W        W13439  10.021   5.005   8.375
 6038W        W13440  15.367   2.648   1.708
 6039W        W13441  12.445   9.786   0.719
 6040W        W13442   0.752   6.934   7.895
 6041W        W13443   8.068   2.646   1.235
 6042W        W13444  12.474   3.587   1.232
 6043W        W13445  11.967   2.663   2.145
 6044W        W13446   6.104   4.066   8.344
 6045W        W13447  14.428   3.604   1.191
 6046W        W13448  11.494   0.727   0.729
 6047W        W13449   8.091   5.033   0.247
 6048W        W13450  14.407   7.875   8.373
 6049W        W13451   9.067   8.371   9.329
 6050W        W13452  13.943   5.027   0.736
 6051W        W13453  12.942   2.188   9.781
 6052W        W13454   6.134   8.362   0.256
 6053W        W13455   6.612   6.915   7.890
 6054W        W13456  14.887   7.393   2.175
 6055W        W13457  17.815   5.973   0.715
 6056W        W13458   8.086   4.069   7.870
 6057W        W13459  16.851   2.149   7.899
 6058W        W13460  14.402   3.600   2.160
 6059W        W13461   8.568   1.704   0.736
 6060W        W13462   6.098   1.694   8.377
 6061W        W13463   7.563   4.058   8.836
 6062W        W13464  16.357   8.853   8.827
 6063W        W13465  15.410   6.909   7.869
 6064W        W13466   2.209   7.879   8.856
 6065W        W13467   0.276   3.130   0.280
 6066W        W13468   1.752   8.842   0.758
 6067W        W13469   7.596   5.986   1.672
 6068W        W13470   6.140   7.381   0.257
 6069W        W13471   8.546   2.177   1.689
 6070W        W13472   4.165   5.496   7.882
 6071W        W13473   5.622   7.403   9.327
 6072W        W13474   5.147   5.521   0.283
 6073W        W13475  15.866   9.774   9.327
 6074W        W13476   0.256   3.612   2.174
 6075W        W13477  19.271   2.156   0.720
 6076W        W13478   0.762   5.039   8.348
 6077W        W13479   6.121   7.398   2.180
 6078W        W13480  11.953   0.725   0.256
 6079W        W13481  19.276   5.046   7.864
 6080W        W13482   1.723   1.220   2.183
 6081W        W13483   6.630   2.154   9.784
 6082W        W13484  12.450   8.356   0.240
 6083W        W13485   9.532   1.206   9.286
 6084W        W13486  11.509   5.983   9.314
 6085W        W13487   9.039   7.399   9.287
 6086W        W13488  16.366   6.450   8.848
 6087W        W13489   7.122   2.662   2.155
 6088W        W13490   1.741   5.477   2.651
 6089W        W13491   1.721   2.648   9.782
 6090W        W13492  13.462   5.038   8.847
 6091W        W13493  17.324   2.653   0.719
 6092W        W13494   8.084   8.810   7.874
 6093W        W13495   3.686   0.758   9.806
 6094W        W13496  14.909   9.799   1.695
 6095W        W13497  16.841   7.408   2.150
 6096W        W13498   9.051   5.521   9.329
 6097W        W13499  11.990   7.875   0.745
 6098W        W13500   0.745   3.585   0.744
 6099W        W13501  11.008   0.738   8.378
 6100W        W13502   5.165   4.532   8.342
 6101W        W13503   2.222   4.068   8.823
 6102W        W13504  19.284   2.162   1.703
 6103W        W13505  13.948   0.747   8.814
 6104W        W13506  17.363   8.821   8.352
 6105W        W13507  12.474   3.597   9.315
 6106W        W13508   9.530   5.962   7.903
 6107W        W13509   5.637   2.189   7.859
 6108W        W13510   0.259   3.602   8.366
 6109W        W13511  17.327   4.059   8.375
 6110W        W13512   0.270   7.425   8.853
 6111W        W13513   5.618   4.086   8.343
 6112W        W13514  19.278   3.611   2.666
 6113W        W13515  11.003   2.164   1.234
 6114W        W13516   7.102   9.790   9.292
 6115W        W13517   1.716   3.615   7.865
 6116W        W13518   8.551   0.755   7.396
 6117W        W13519   0.774   1.711   0.243
 6118W        W13520  11.975   4.525   1.673
 6119W        W13521   7.113   1.220   0.286
 6120W        W13522  16.359   4.061   2.625
 6121W        W13523   6.597   5.035   0.246
 6122W        W13524   1.725   7.390   9.762
 6123W        W13525  17.339   2.639   7.883
 6124W        W13526  17.826   0.285   0.256
 6125W        W13527  14.885   7.385   0.284
 6126W        W13528  10.998   9.328   1.235
 6127W        W13529  17.807   4.526   1.693
 6128W        W13530   2.688   2.161   9.803
 6129W        W13531  17.341   0.732   7.418
 6130W        W13532  11.483   0.266   8.341
 6131W        W13533   4.155   7.901   1.227
 6132W        W13534   7.089   2.660   0.247
 6133W        W13535   9.042   3.592   7.894
 6134W        W13536   6.601   3.576   0.281
 6135W        W13537  15.867   5.484   8.853
 6136W        W13538  16.389   1.213   7.874
 6137W        W13539  13.421   2.161   8.341
 6138W        W13540  17.808   7.878   2.157
 6139W        W13541  16.368   9.330   1.214
 6140W        W13542   6.614   9.325   2.174
 6141W        W13543  12.964   3.105   0.251
 6142W        W13544   1.731   5.990   9.295
 6143W        W13545   6.134   5.021   0.725
 6144W        W13546  18.333   0.285   1.682
 6145W        W13547  19.309   9.784   2.165
 6146W        W13548  18.304   5.492   7.873
 6147W        W13549  14.412   9.314   8.375
 6148W        W13550  10.979   7.889   7.865
 6149W        W13551   3.684   1.668   7.860
 6150W        W13552  14.915   5.516   0.262
 6151W        W13553   0.254   4.564   7.390
 6152W        W13554  16.857   3.126   2.145
 6153W        W13555  12.974   5.005   9.799
 6154W        W13556   9.063   5.003   0.729
 6155W        W13557  16.354   1.688   9.765
 6156W        W13558   5.613   6.950   0.736
 6157W        W13559   6.122   6.457   1.197
 6158W        W13560  13.429   2.156   2.143
 6159W        W13561  18.822   5.509   9.800
 6160W        W13562   9.555   7.421   1.703
 6161W        W13563  10.497   0.270   2.168
 6162W        W13564  19.779   5.476   8.366
 6163W        W13565  17.324   9.767   7.869
 6164W        W13566  19.776   7.876   1.224
 6165W        W13567  18.293   8.358   9.784
 6166W        W13568   7.603   2.163   7.889
 6167W        W13569   4.646   8.337   2.184
 6168W        W13570  11.981   2.169   1.713
 6169W        W13571   5.628   3.599   2.179
 6170W        W13572   7.082   8.377   7.882
 6171W        W13573  13.439   6.459   9.300
 6172W        W13574  18.814   4.080   0.755
 6173W        W13575   4.653   3.588   7.875
 6174W        W13576   6.122   9.770   7.864
 6175W        W13577  15.408   5.046   7.427
 6176W        W13578   6.597   0.752   2.154
 6177W        W13579   5.656   3.573   0.735
 6178W        W13580   0.751   8.375   8.363
 6179W        W13581  12.957   6.919   8.380
 6180W        W13582   2.708   4.559   7.880
 6181W        W13583  17.322   8.339   0.277
 6182W        W13584   8.567   5.970   9.313
 6183W        W13585  13.910   4.056   8.373
 6184W        W13586  15.885   5.968   1.194
 6185W        W13587  10.019   1.687   1.702
 6186W        W13588  13.917   4.084   9.765
 6187W        W13589  10.037   2.644   8.826
 6188W        W13590   2.196   4.565   1.233
 6189W        W13591  19.798   0.270   1.201
 6190W        W13592   8.568   6.925   1.205
 6191W        W13593   5.141   7.865   8.344
 6192W        W13594  16.359   5.990   2.164
 6193W        W13595  11.008   5.478   0.714
 6194W        W13596   2.689   5.980   8.830
 6195W        W13597   8.062   2.625   7.900
 6196W        W13598  14.426   7.427   0.728
 6197W        W13599   8.555   7.877   9.286
 6198W        W13600  13.929   2.636   0.281
 6199W        W13601  10.019   9.319   2.182
 6200W        W13602  17.846   9.800   8.379
 6201W        W13603   5.156   6.469   2.155
 6202W        W13604  11.488   9.803   2.164
 6203W        W13605  18.807   5.038   7.880
 6204W        W13606   3.215   8.833   8.816
 6205W        W13607  12.960   0.257   1.684
 6206W        W13608   8.549   6.941   9.786
 6207W        W13609  12.468   7.871   8.842
 6208W        W13610  16.366   2.657   9.784
 6209W        W13611  19.307   9.288   9.312
 6210W        W13612   0.258   6.947   2.159
 6211W        W13613  13.929   4.531   0.733
 6212W        W13614   1.708   6.916   8.351
 6213W        W13615   8.094   7.876   1.192
 6214W        W13616  19.298   8.359   1.697
 6215W        W13617   8.543   9.788   8.346
 6216W        W13618   4.179   5.019   9.804
 6217W        W13619  10.017   5.962   9.798
 6218W        W13620   0.760   1.226   7.895
 6219W        W13621   6.620   7.891   9.320
 6220W        W13622  10.488   8.812   0.717
 6221W        W13623   5.616   2.622   2.149
 6222W        W13624  18.798   2.629   9.317
 6223W        W13625  10.505   2.172   7.875
 6224W        W13626   5.166   5.484   0.738
 6225W        W13627   5.133   7.881   1.677
 6226W        W13628   3.701   0.737   0.720
 6227W        W13629   2.235   8.337   1.201
 6228W        W13630   9.556   0.737   9.779
 6229W        W13631  17.848   0.241   9.318
 6230W        W13632   0.775   4.066   9.775
 6231W        W13633  19.308   6.943   8.349
 6232W        W13634   7.077   9.294   9.784
 6233W        W13635  12.486   5.504   0.725
 6234W        W13636   7.591   2.177   1.203
 6235W        W13637   1.231   6.444   9.800
 6236W        W13638   8.073   5.038   0.753
 6237W        W13639   3.667   6.462   9.310
 6238W        W13640  15.380   1.219   0.737
 6239W        W13641  18.822   9.776   0.251
 6240W        W13642   5.144   7.421   7.904
 6241W        W13643  11.003   8.823   8.826
 6242W        W13644  12.477   5.042   0.261
 6243W        W13645  12.485   6.469   8.354
 6244W        W13646   7.570   7.869   8.345
 6245W        W13647  15.873   8.343   9.303
 6246W        W13648  17.339   3.582   2.184
 6247W        W13649   4.165   0.748   9.297
 6248W        W13650  16.378   7.426   8.373
 6249W        W13651   2.200   0.262   8.831
 6250W        W13652  13.943   3.598   1.196
 6251W        W13653  16.848   1.680   8.816
 6252W        W13654   3.696   8.367   1.703
 6253W        W13655  11.473   9.331   7.410
 6254W        W13656   5.656   2.661   0.262
 6255W        W13657   4.158   4.092   0.278
 6256W        W13658  14.920   2.646   7.881
 6257W        W13659   4.155   3.112   8.337
 6258W        W13660   0.278   2.630   0.271
 6259W        W13661  19.790   5.959   1.712
 6260W        W13662   8.560   4.074   9.333
 6261W        W13663   7.590   5.028   1.714
 6262W        W13664  10.983   7.401   8.372
 6263W        W13665   3.705   5.509   8.364
 6264W        W13666  15.396   3.577   0.742
 6265W        W13667  11.012   1.709   0.283
 6266W        W13668  15.891   7.421   2.149
 6267W        W13669   5.165   3.134   8.342
 6268W        W13670  12.938   6.468   9.781
 6269W        W13671  19.302   3.594   1.687
 6270W        W13672   0.775   9.308   0.241
 6271W        W13673   6.618   5.039   7.902
 6272W        W13674   1.744   8.821   9.766
 6273W        W13675   0.780   2.145   9.307
 6274W        W13676  19.768   2.660   9.294
 6275W        W13677   9.053   7.870   9.799
 6276W        W13678   8.560   1.709   2.662
 6277W        W13679   3.693   2.625   0.272
 6278W        W13680  18.798   5.977   9.784
 6279W        W13681  10.036   6.447   0.258
 6280W        W13682  12.955   6.925   2.635
 6281W        W13683  10.011   5.511   2.152
 6282W        W13684   6.604   3.581   8.341
 6283W        W13685   1.727   8.353   9.333
 6284W        W13686   5.137   5.502   9.773
 6285W        W13687   4.186   9.326   8.364
 6286W        W13688   5.155   5.503   9.303
 6287W        W13689   2.684   5.002   8.354
 6288W        W13690  15.367   1.235   9.301
 6289W        W13691   5.122   3.608   0.730
 6290W        W13692   8.582   3.619   2.161
 6291W        W13693   0.283   6.444   1.198
 6292W        W13694  13.433   2.170   8.812
 6293W        W13695   9.035   4.081   1.693
 6294W        W13696   9.553   0.250   9.323
 6295W        W13697   5.150   7.403   8.347
 6296W        W13698   1.733   5.963   1.215
 6297W        W13699  13.903   6.948   7.866
 6298W        W13700  10.989   8.835   1.676
 6299W        W13701   0.259   8.366   0.248
 6300W        W13702  18.310   5.512   9.329
 6301W        W13703  10.490   1.207   9.293
 6302W        W13704   8.095   4.556   0.729
 6303W        W13705   9.047   8.824   8.372
 6304W        W13706   9.549   2.644   9.294
 6305W        W13707  15.876   1.232   8.838
 6306W        W13708  18.325   1.205   1.235
 6307W        W13709   7.093   1.706   0.260
 6308W        W13710  15.403   2.636   8.380
 6309W        W13711  14.899   0.727   8.337
 6310W        W13712   7.606   9.780   0.265
 6311W        W13713   4.152   6.927   2.154
 6312W        W13714   0.271   7.894   8.811
 6313W        W13715   9.558   4.081   0.760
 6314W        W13716  10.989   2.163   0.753
 6315W        W13717   7.575   0.761   8.837
 6316W        W13718   4.636   0.734   8.855
 6317W        W13719   4.656   1.712   0.275
 6318W        W13720  12.450   1.692   9.783
 6319W        W13721   4.674   6.931   9.319
 6320W        W13722   9.048   7.859   9.300
 6321W        W13723   3.665   4.091   2.148
 6322W        W13724   7.604   5.507   9.779
 6323W        W13725  10.512   0.753   1.237
 6324W        W13726  16.353   5.506   1.680
 6325W        W13727   7.569   8.374   0.762
 6326W        W13728   1.727   2.168   0.256
 6327W        W13729   2.207   8.377   0.255
 6328W        W13730  17.356   7.399   2.156
 6329W        W13731   0.749   5.029   7.870
 6330W        W13732   0.254   0.720   8.368
 6331W        W13733  12.471   2.162   8.814
 6332W        W13734   0.737   8.365   7.420
 6333W        W13735   8.558   9.320   0.759
 6334W        W13736   4.648   7.882   8.820
 6335W        W13737  19.758   9.291   2.640
 6336W        W13738   7.590   8.821   1.701
 6337W        W13739  11.493   8.354   0.271
 6338W        W13740   3.692   5.489   0.749
 6339W        W13741   1.261   1.237   1.694
 6340W        W13742   3.667   5.988   1.712
 6341W        W13743  11.508   9.773   2.663
 6342W        W13744   5.649   8.844   9.780
 6343W        W13745  13.449   9.299   8.341
 6344W        W13746   1.239   7.398   8.335
 6345W        W13747  18.791   9.764   8.822
 6346W        W13748  15.412   6.450   1.710
 6347W        W13749   4.169   1.707   1.678
 6348W        W13750  10.997   5.524   1.224
 6349W        W13751   7.112   6.907   1.714
 6350W        W13752   8.088   3.125   9.796
 6351W        W13753   1.753   4.067   1.222
 6352W        W13754  19.272   5.495   1.218
 6353W        W13755  16.348   2.658   8.819
 6354W        W13756  19.794   1.667   1.670
 6355W        W13757   6.104   1.668   1.705
 6356W        W13758  10.019   4.566   0.723
 6357W        W13759   1.710   3.595   1.203
 6358W        W13760  11.492   4.529   7.860
 6359W        W13761   9.543   4.064   1.705
 6360W        W13762   8.547   5.512   9.301
 6361W        W13763  10.001   5.985   2.655
 6362W        W13764  13.921   7.904   9.329
 6363W        W13765   4.646   5.488   3.112
 6364W        W13766   2.240   5.976   2.151
 6365W        W13767  18.324   5.041   7.887
 6366W        W13768  11.993   8.829   8.378
 6367W        W13769   7.098   0.243   8.843
 6368W        W13770  19.771   1.228   9.287
 6369W        W13771   5.156   8.839   0.270
 6370W        W13772   9.526   6.465   0.261
 6371W        W13773  11.983   2.644   0.728
 6372W        W13774   2.240   7.406   1.192
 6373W        W13775   8.578   4.526   9.304
 6374W        W13776   2.699   6.912   7.887
 6375W        W13777  19.291   4.056   1.671
 6376W        W13778   7.604   2.178   7.384
 6377W        W13779  11.486   9.317   2.149
 6378W        W13780  13.904   5.505   8.359
 6379W        W13781  10.015   9.303   0.268
 6380W        W13782   1.243   2.651   0.240
 6381W        W13783  13.423   0.247   7.418
 6382W        W13784   4.164   1.700   9.323
 6383W        W13785   1.256   4.074   2.169
 6384W        W13786   2.196   8.353   8.351
 6385W        W13787   5.621   2.157   8.852
 6386W        W13788   6.118   5.520   9.769
 6387W        W13789   0.767   9.327   7.891
 6388W        W13790   4.666   3.590   9.297
 6389W        W13791  10.009   2.636   2.153
 6390W        W13792  10.525   4.086   9.772
 6391W        W13793  14.432   1.202   8.834
 6392W        W13794  11.484   5.960   8.837
 6393W        W13795  17.364   9.287   2.184
 6394W        W13796  13.433   6.476   0.717
 6395W        W13797  17.330   2.185   7.887
 6396W        W13798   5.611   8.813   8.851
 6397W        W13799   8.054   7.390   0.240
 6398W        W13800  19.282   4.558   2.156
 6399W        W13801   0.248   5.514   9.297
 6400W        W13802  15.375   2.629   0.717
 6401W        W13803   0.280   9.776   8.810
 6402W        W13804  16.363   5.509   0.268
 6403W        W13805   9.024   0.255   8.359
 6404W        W13806   2.225   7.415   2.177
 6405W        W13807  10.045   7.889   9.326
 6406W        W13808  14.897   4.569   0.737
 6407W        W13809   8.563   8.838   9.807
 6408W        W13810   1.721   5.039   9.773
 6409W        W13811  17.331   5.519   0.755
 6410W        W13812   7.074   8.825   0.724
 6411W        W13813  14.409   9.792   1.196
 6412W        W13814   6.133   9.781   8.336
 6413W        W13815  18.337   4.546   0.715
 6414W        W13816   2.220   0.242   9.290
 6415W        W13817  19.273   7.424   9.801
 6416W        W13818  10.025   5.518   0.755
 6417W        W13819   1.239   4.539   9.307
 6418W        W13820  11.466   0.238   1.218
 6419W        W13821   8.075   7.409   8.344
 6420W        W13822  14.917   8.815   1.710
 6421W        W13823   6.599   0.268   8.846
 6422W        W13824  16.831   9.782   9.769
 6423W        W13825   2.221   1.219   8.818
 6424W        W13826   8.556   8.345   9.773
 6425W        W13827   5.654   8.360   1.237
 6426W        W13828  14.905   5.996   8.845
 6427W        W13829  10.983   5.010   1.683
 6428W        W13830   8.065   4.081   0.750
 6429W        W13831  18.319   9.304   7.873
 6430W        W13832   4.166   2.155   7.888
 6431W        W13833  11.997   3.128   0.734
 6432W        W13834   7.582   0.727   9.789
 6433W        W13835  10.044   2.151   1.672
 6434W        W13836   6.628   7.385   8.344
 6435W        W13837   8.061   8.377   8.810
 6436W        W13838   0.249   4.087   1.201
 6437W        W13839   9.072   0.277   9.762
 6438W        W13840  19.792   8.360   8.812
 6439W        W13841  10.513   2.661   0.735
 6440W        W13842  16.830   3.598   2.165
 6441W        W13843   7.610   4.535   9.764
 6442W        W13844   2.199   9.332   2.658
 6443W        W13845   5.152   1.702   8.342
 6444W        W13846  10.008   0.271   8.837
 6445W        W13847   0.770   0.732   1.668
 6446W        W13848  19.765   9.308   9.796
 6447W        W13849  19.766   5.963   1.197
 6448W        W13850   3.202   3.098   9.305
 6449W        W13851  13.440   5.033   0.718
 6450W        W13852   6.136   5.505   9.319
 6451W        W13853  11.009   4.087   8.819
 6452W        W13854   6.108   1.669   2.652
 6453W        W13855  10.521   1.679   0.268
 6454W        W13856  15.889   8.840   1.199
 6455W        W13857  18.295   8.831   9.805
 6456W        W13858   5.611   9.317   9.319
 6457W        W13859  17.811   7.399   1.685
 6458W        W13860   9.541   8.824   0.738
 6459W        W13861   3.685   8.350   9.768
 6460W        W13862   4.147   0.262   8.357
 6461W        W13863  11.991   1.669   8.811
 6462W        W13864   5.152   5.020   1.682
 6463W        W13865   9.560   7.882   2.165
 6464W        W13866   7.105   5.984   0.246
 6465W        W13867  12.447   4.075   2.151
 6466W        W13868  15.399   7.399   9.290
 6467W        W13869  16.362   1.192   1.237
 6468W        W13870  16.386   8.337   1.197
 6469W        W13871  12.969   2.176   8.343
 6470W        W13872   0.289   7.904   9.314
 6471W        W13873  11.965   1.713   9.785
 6472W        W13874   5.129   4.093   8.837
 6473W        W13875  17.814   5.993   2.171
 6474W        W13876   8.059   0.252   0.269
 6475W        W13877  10.986   8.850   0.255
 6476W        W13878  17.342   7.385   9.802
 6477W        W13879   1.713   0.750   0.718
 6478W        W13880  12.940   9.311   1.677
 6479W        W13881   1.253   6.912   2.170
 6480W        W13882  16.387   3.579   0.724
 6481W        W13883  19.784   5.040   1.227
 6482W        W13884   4.660   8.824   8.846
 6483W        W13885   0.260   7.391   7.893
 6484W        W13886   4.670   4.065   7.896
 6485W        W13887  11.502   0.739   1.236
 6486W        W13888   6.128   1.229   9.288
 6487W        W13889  14.903   2.631   0.275
 6488W        W13890  10.535   5.996   8.831
 6489W        W13891   2.699   7.388   9.777
 6490W        W13892   4.678   8.369   8.850
 6491W        W13893  12.955   5.003   1.203
 6492W        W13894   4.660   9.295   0.725
 6493W        W13895  19.312   7.407   0.242
 6494W        W13896  15.406   3.136   7.885
 6495W        W13897  16.845   5.036   8.355
 6496W        W13898   2.206   6.470   2.146
 6497W        W13899   2.686   8.376   1.201
 6498W        W13900   5.637   2.655   9.776
 6499W        W13901  14.413   5.502   1.685
 6500W        W13902  11.486   2.148   8.378
 6501W        W13903  17.836   4.056   8.346
 6502W        W13904   5.126   0.717   9.289
 6503W        W13905   0.272   9.333   9.310
 6504W        W13906   7.606   1.695   8.343
 6505W        W13907  11.962   9.774   8.810
 6506W        W13908   1.220   7.891   1.707
 6507W        W13909  17.359   1.226   7.877
 6508W        W13910  17.822   5.518   9.310
 6509W        W13911   5.647   7.892   8.842
 6510W        W13912  10.490   1.198   0.735
 6511W        W13913   4.155   6.433   1.226
 6512W        W13914  10.492   6.943   8.843
 6513W        W13915   0.266   3.132   9.318
 6514W        W13916  10.003   9.793   7.857
 6515W        W13917   1.240   3.121   2.625
 6516W        W13918   4.189   3.605   2.156
 6517W        W13919   3.181   1.237   7.904
 6518W        W13920   9.521   4.094   0.265
 6519W        W13921  16.353   5.015   8.344
 6520W        W13922  11.983   3.099   8.334
 6521W        W13923  16.359   8.848   7.866
 6522W        W13924  10.983   4.528   2.179
 6523W        W13925   0.272   4.563   9.303
 6524W        W13926  16.355   3.581   7.426
 6525W        W13927  13.933   5.017   7.883
 6526W        W13928  13.950   9.289   0.735
 6527W        W13929   2.725   7.412   1.705
 6528W        W13930  14.926   1.229   2.147
 6529W        W13931   3.179   7.863   0.252
 6530W        W13932   2.696   6.933   9.295
 6531W        W13933  19.773   4.049   9.780
 6532W        W13934  15.410   9.321   0.268
 6533W        W13935  17.839   9.306   8.350
 6534W        W13936  13.439   1.708   7.860
 6535W        W13937  17.852   8.373   7.883
 6536W        W13938  19.308   3.109   7.858
 6537W        W13939  14.909   7.862   0.272
 6538W        W13940  19.763   3.576   0.733
 6539W        W13941  18.293   0.754   8.376
 6540W        W13942   1.717   3.123   9.310
 6541W        W13943  17.352   0.722   2.188
 6542W        W13944   0.767   8.854   8.853
 6543W        W13945   8.057   2.150   1.205
 6544W        W13946   6.613   6.458   8.816
 6545W        W13947   1.234   2.628   7.860
 6546W        W13948   3.205   4.533   8.375
 6547W        W13949  18.827   0.265   8.333
 6548W        W13950  19.756   3.121   9.294
 6549W        W13951  18.327   2.170   9.763
 6550W        W13952   5.137   5.027   7.886
 6551W        W13953   3.701   7.392   9.301
 6552W        W13954  12.971   7.393   8.346
 6553W        W13955   8.056   6.470   8.366
 6554W        W13956   9.051   7.394   0.273
 6555W        W13957  13.460   1.238   9.808
 6556W        W13958   8.566   7.883   7.876
 6557W        W13959  14.395   5.509   8.342
 6558W        W13960  15.396   6.914   2.145
 6559W        W13961  14.916   6.453   8.358
 6560W        W13962  10.042   6.450   8.833
 6561W        W13963  15.863   6.469   7.896
 6562W        W13964  15.410   3.615   7.891
 6563W        W13965   7.083   1.215   7.889
 6564W        W13966  14.895   9.328   8.832
 6565W        W13967  17.814   9.769   1.695
 6566W        W13968  14.403   0.275   7.904
 6567W        W13969  10.982   5.029   8.825
 6568W        W13970  19.768   0.240   0.259
 6569W        W13971  11.501   7.410   1.679
 6570W        W13972  18.783   1.221   9.770
 6571W        W13973  14.882   2.664   0.721
 6572W        W13974  11.976   9.769   2.183
 6573W        W13975   0.771   5.487   8.834
 6574W        W13976  11.970   2.632   8.832
 6575W        W13977   9.546   5.505   0.758
 6576W        W13978   4.655   2.654   0.755
 6577W        W13979   0.780   3.122   2.153
 6578W        W13980  14.427   6.450   9.795
 6579W        W13981  15.386   1.669   7.869
 6580W        W13982  12.457   7.896   0.745
 6581W        W13983   0.270   2.638   9.298
 6582W        W13984   5.156   4.057   0.756
 6583W        W13985  12.944   4.539   0.283
 6584W        W13986   0.265   1.205   8.380
 6585W        W13987  19.307   5.960   8.351
 6586W        W13988   5.632   2.651   1.679
 6587W        W13989  14.414   4.556   8.345
 6588W        W13990   0.248   8.824   8.369
 6589W        W13991   1.222   1.210   1.197
 6590W        W13992   8.575   2.656   7.404
 6591W        W13993   7.099   4.093   7.420
 6592W        W13994  11.957   1.237   0.245
 6593W        W13995   5.644   5.492   9.809
 6594W        W13996   2.235   4.085   7.900
 6595W        W13997  18.809   4.543   0.724
 6596W        W13998   8.542   0.280   0.260
 6597W        W13999  11.015   8.812   8.345
 6598W        W14000  11.472   9.291   8.340
 6599W        W14001  17.837   9.793   0.252
 6600W        W14002   7.120   9.801   0.253
 6601W        W14003  14.432   5.953   0.279
 6602W        W14004   3.697   2.624   7.894
 6603W        W14005  10.022   8.365   1.203
 6604W        W14006  18.822   3.598   2.159
 6605W        W14007  16.867   8.827   7.865
 6606W        W14008  18.798   0.266   1.230
 6607W        W14009  17.838   6.931   7.879
 6608W        W14010   6.100   3.609   1.691
 6609W        W14011  19.792   2.182   7.896
 6610W        W14012   7.104   7.406   9.297
 6611W        W14013   1.738   2.189   2.179
 6612W        W14014  10.017   8.379   8.337
 6613W        W14015  11.477   0.265   0.274
 6614W        W14016   2.196   3.596   7.876
 6615W        W14017  15.885   8.363   1.227
 6616W        W14018   8.555   5.970   7.866
 6617W        W14019  17.359   2.625   1.223
 6618W        W14020  14.895   9.295   8.373
 6619W        W14021  11.973   0.731   8.368
 6620W        W14022   5.632   4.053   9.805
 6621W        W14023  16.837   3.606   0.738
 6622W        W14024   1.709   0.241   1.700
 6623W        W14025  14.922   8.348   1.677
 6624W        W14026   3.192   1.700   9.320
 6625W        W14027   0.735   8.822   2.155
 6626W        W14028  15.870   9.809   7.895
 6627W        W14029   4.681   9.293   9.307
 6628W        W14030   4.647   7.422   8.352
 6629W        W14031  15.408   5.001   8.847
 6630W        W14032   3.198   8.824   7.872
 6631W        W14033   7.607   5.033   9.305
 6632W        W14034   7.574   2.174   9.783
 6633W        W14035  16.863   5.024   7.391
 6634W        W14036   2.729   2.165   2.157
 6635W        W14037   2.713   1.676   0.239
 6636W        W14038   7.607   0.729   0.739
 6637W        W14039  13.926   6.433   8.366
 6638W        W14040   3.674   4.057   8.344
 6639W        W14041   8.551   1.710   9.793
 6640W        W14042  17.326   5.488   9.295
 6641W        W14043  12.440   2.628   1.697
 6642W        W14044  14.887   9.309   2.180
 6643W        W14045  16.845   9.332   9.788
 6644W        W14046   9.033   8.841   7.894
 6645W        W14047  11.958   9.801   7.904
 6646W        W14048   4.653   6.905   9.796
 6647W        W14049   8.072   6.464   0.732
 6648W        W14050   4.672   0.739   0.748
 6649W        W14051   4.639   4.531   7.893
 6650W        W14052   9.025   8.821   1.683
 6651W        W14053  17.317   9.794   0.719
 6652W        W14054  11.008   7.387   7.871
 6653W        W14055   3.677   3.134   7.860
 6654W        W14056  14.400   7.395   8.356
 6655W        W14057   9.033   5.989   0.246
 6656W        W14058  11.492   2.661   8.353
 6657W        W14059   0.263   7.895   0.272
 6658W        W14060   0.744   7.897   8.814
 6659W        W14061  18.304   6.000   2.187
 6660W        W14062  19.760   6.444   9.303
 6661W        W14063  11.980   4.536   7.381
 6662W        W14064   7.109   7.890   7.875
 6663W        W14065  11.469   4.566   8.831
 6664W        W14066   3.188   9.791   0.271
 6665W        W14067   7.579   7.860   1.667
 6666W        W14068  13.461   2.643   8.845
 6667W        W14069  15.893   2.630   2.179
 6668W        W14070  12.448   5.974   0.754
 6669W        W14071   5.634   9.773   8.834
 6670W        W14072  17.362   5.036   1.705
 6671W        W14073  10.042   2.149   8.848
 6672W        W14074  10.988   1.207   8.825
 6673W        W14075  18.789   9.784   7.881
 6674W        W14076  18.802   6.941   1.234
 6675W        W14077   8.537   8.347   8.373
 6676W        W14078  19.312   5.994   1.196
 6677W        W14079  16.852   5.485   9.291
 6678W        W14080  18.824   7.411   7.870
 6679W        W14081  14.925   8.380   0.256
 6680W        W14082  12.479   6.447   0.266
 6681W        W14083   9.543   5.514   9.763
 6682W        W14084  10.528   0.280   0.719
 6683W        W14085   2.202   9.775   0.239
 6684W        W14086   7.117   5.024   9.319
 6685W        W14087  10.506   3.095   7.858
 6686W        W14088  17.329   3.617   8.378
 6687W        W14089  10.492   2.652   8.845
 6688W        W14090   7.090   5.031   9.780
 6689W        W14091   2.705   8.849   8.344
 6690W        W14092   5.639   3.589   1.676
 6691W        W14093   1.749   3.588   0.284
 6692W        W14094  13.928   8.825   1.233
 6693W        W14095   1.263   1.696   8.342
 6694W        W14096   8.086   2.176   0.755
 6695W        W14097  18.817   0.251   0.727
 6696W        W14098  15.398   2.638   0.253
 6697W        W14099   8.580   7.901   8.836
 6698W        W14100   1.250   6.907   9.311
 6699W        W14101   1.732   6.465   2.154
 6700W        W14102   5.168   6.935   8.357
 6701W        W14103  15.880   6.921   9.779
 6702W        W14104  18.794   6.950   7.885
 6703W        W14105  11.022   7.869   7.429
 6704W        W14106   2.223   6.456   0.756
 6705W        W14107   6.120   3.614   7.901
 6706W        W14108  10.988   2.642   2.165
 6707W        W14109   2.731   0.726   2.185
 6708W        W14110   7.567   2.629   9.294
 6709W        W14111  13.944   8.336   7.874
 6710W        W14112   1.251   7.417   1.687
 6711W        W14113  13.445   5.026   1.194
 6712W        W14114  10.015   1.685   0.750
 6713W        W14115   8.051   8.360   1.672
 6714W        W14116   9.535   6.917   0.254
 6715W        W14117   5.629   9.319   1.707
 6716W        W14118   3.194   8.370   8.834
 6717W        W14119   7.590   0.260   0.746
 6718W        W14120   2.238   9.802   1.712
 6719W        W14121   8.073   9.807   1.698
 6720W        W14122   9.524   6.925   1.236
 6721W        W14123  12.467   3.101   1.710
 6722W        W14124  14.888   9.793   8.831
 6723W        W14125  13.417   9.774   7.899
 6724W        W14126   4.183   4.095   8.368
 6725W        W14127   9.514   3.585   0.249
 6726W        W14128  15.396   3.096   0.731
 6727W        W14129  11.992   3.125   1.229
 6728W        W14130   3.663   1.193   8.374
 6729W        W14131  19.769   5.505   9.292
 6730W        W14132  10.497   6.456   8.816
 6731W        W14133   6.099   9.782   8.831
 6732W        W14134  14.438   9.788   9.313
 6733W        W14135  19.788   3.581   8.364
 6734W        W14136   6.591   6.459   1.193
 6735W        W14137  17.824   6.470   7.861
 6736W        W14138  18.301   1.707   1.709
 6737W        W14139  17.323   0.756   8.812
 6738W        W14140  13.942   5.963   8.338
 6739W        W14141   1.743   9.781   8.353
 6740W        W14142   1.268   7.898   8.849
 6741W        W14143  18.297   2.649   0.278
 6742W        W14144   4.156   7.882   9.772
 6743W        W14145  19.312   9.762   9.766
 6744W        W14146  12.944   5.022   0.745
 6745W        W14147   9.029   1.710   0.273
 6746W        W14148  18.788   5.488   0.716
 6747W        W14149   4.650   6.912   1.699
 6748W        W14150   1.717   5.003   7.417
 6749W        W14151   3.664   3.577   9.332
 6750W        W14152  17.823   5.008   1.672
 6751W        W14153  11.021   0.258   8.381
 6752W        W14154  18.298   2.620   0.740
 6753W        W14155  18.321   3.125   1.200
 6754W        W14156   7.102   4.076   8.814
 6755W        W14157   2.214   3.605   0.751
 6756W        W14158  11.020   6.947   9.804
 6757W        W14159   1.250   9.288   1.204
 6758W        W14160   1.268   8.347   8.362
 6759W        W14161   2.703   7.428   2.172
 6760W        W14162   6.098   5.494   7.888
 6761W        W14163   7.088   5.496   0.270
 6762W        W14164  18.299   7.405   0.739
 6763W        W14165   0.737   7.410   1.699
 6764W        W14166   2.200   5.030   0.258
 6765W        W14167  18.321   4.543   1.699
 6766W        W14168   1.234   6.910   9.776
 6767W        W14169   1.722   5.524   7.869
 6768W        W14170  17.841   2.178   0.749
 6769W        W14171  14.907   8.822   8.856
 6770W        W14172   3.188   5.984   0.246
 6771W        W14173  16.370   8.343   7.866
 6772W        W14174   3.183   0.724   0.758
 6773W        W14175   7.111   3.617   1.689
 6774W        W14176  18.293   1.697   8.345
 6775W        W14177   9.516   7.867   0.257
 6776W        W14178   8.550   6.457   9.767
 6777W        W14179   1.257   6.916   7.880
 6778W        W14180   0.278   5.039   7.900
 6779W        W14181   3.179   9.296   8.344
 6780W        W14182   9.543   9.295   0.751
 6781W        W14183  14.437   3.132   7.857
 6782W        W14184   8.089   1.237   9.318
 6783W        W14185   7.596   8.351   2.146
 6784W        W14186  19.277   7.867   8.346
 6785W        W14187   9.054   2.174   9.300
 6786W        W14188  17.842   3.107   0.252
 6787W        W14189   5.162   8.374   8.375
 6788W        W14190   0.754   2.622   8.365
 6789W        W14191  17.812   6.452   0.715
 6790W        W14192  13.416   4.065   8.367
 6791W        W14193  15.378   5.505   8.822
 6792W        W14194  16.834   0.721   0.276
 6793W        W14195  19.270   4.552   8.839
 6794W        W14196   3.214   0.741   9.301
 6795W        W14197   2.701   3.122   0.730
 6796W        W14198  19.787   5.520   1.697
 6797W        W14199  11.471   9.290   9.800
 6798W        W14200  11.994   9.805   0.278
 6799W        W14201  16.346   5.991   1.234
 6800W        W14202  13.445   5.482   0.276
 6801W        W14203   1.259   7.896   9.808
 6802W        W14204   8.540   4.543   2.144
 6803W        W14205  14.914   6.914   8.364
 6804W        W14206  16.377   4.552   2.646
 6805W        W14207   5.144   8.338   7.884
 6806W        W14208  17.835   2.646   2.154
 6807W        W14209  19.766   8.857   1.193
 6808W        W14210   9.037   7.880   1.669
 6809W        W14211   3.659   9.289   8.378
 6810W        W14212   0.249   5.504   8.835
 6811W        W14213   1.248   2.658   9.766
 6812W        W14214  18.815   1.210   8.817
 6813W        W14215  15.369   6.468   8.363
 6814W        W14216   3.698   1.213   0.740
 6815W        W14217  15.374   8.843   0.719
 6816W        W14218  15.409   3.102   8.853
 6817W        W14219   5.621   6.929   0.250
 6818W        W14220  11.491   5.012   9.785
 6819W        W14221  16.846   7.890   1.235
 6820W        W14222   9.513   7.382   7.873
 6821W        W14223  18.819   2.636   2.173
 6822W        W14224  12.445   6.447   8.849
 6823W        W14225   9.537   4.552   7.882
 6824W        W14226   6.123   0.746   8.374
 6825W        W14227  14.397   6.942   0.731
 6826W        W14228   1.243   5.994   9.324
 6827W        W14229  12.952   2.656   7.901
 6828W        W14230  13.446   9.764   2.187
 6829W        W14231  12.963   2.143   0.747
 6830W        W14232   9.070   2.160   8.344
 6831W        W14233  10.993   4.565   7.382
 6832W        W14234   7.603   5.004   8.360
 6833W        W14235   6.590   9.768   8.352
 6834W        W14236   0.759   5.520   1.709
 6835W        W14237  12.486   0.718   2.157
 6836W        W14238  19.774   7.872   1.670
 6837W        W14239  16.378   3.592   8.846
 6838W        W14240  10.004   6.945   0.276
 6839W        W14241  10.505   5.986   9.321
 6840W        W14242   7.078   8.835   1.232
 6841W        W14243   5.133   1.681   9.318
 6842W        W14244  18.794   8.353   8.375
 6843W        W14245   9.032   0.718   1.196
 6844W        W14246   1.717   2.180   7.864
 6845W        W14247  15.395   7.864   0.725
 6846W        W14248  17.853   5.953   7.386
 6847W        W14249   0.737   3.097   2.655
 6848W        W14250  18.786   1.200   1.209
 6849W        W14251   2.195   2.183   8.343
 6850W        W14252  14.897   0.723   1.221
 6851W        W14253  13.416   8.366   7.868
 6852W        W14254  13.422   6.912   7.887
 6853W        W14255   3.670   1.714   1.705
 6854W        W14256  18.815   2.182   1.706
 6855W        W14257   4.164   5.493   1.227
 6856W        W14258  18.809   5.496   7.895
 6857W        W14259  13.425   5.485   9.782
 6858W        W14260  18.310   3.608   8.337
 6859W        W14261   6.110   2.170   8.840
 6860W        W14262   0.285   7.899   0.753
 6861W        W14263  14.882   5.495   7.418
 6862W        W14264  19.803   3.140   0.256
 6863W        W14265   7.119   4.558   1.192
 6864W        W14266   2.223   5.506   8.361
 6865W        W14267   7.106   8.834   2.148
 6866W        W14268   5.634   5.036   2.161
 6867W        W14269  17.841   4.562   8.819
 6868W        W14270   5.169   0.266   7.866
 6869W        W14271   4.667   4.555   9.782
 6870W        W14272  18.326   2.638   1.207
 6871W        W14273  12.940   3.572   8.852
 6872W        W14274   3.187   7.402   9.314
 6873W        W14275  15.876   2.639   9.772
 6874W        W14276  18.341   4.080   0.273
 6875W        W14277   8.079   9.762   0.266
 6876W        W14278  14.881   8.832   7.876
 6877W        W14279   3.205   7.387   9.797
 6878W        W14280  17.365   9.805   9.805
 6879W        W14281   5.615   6.437   0.250
 6880W        W14282  10.012   0.272   0.239
 6881W        W14283  11.484   9.802   9.310
 6882W        W14284  15.405   2.643   1.204
 6883W        W14285   8.551   1.699   2.162
 6884W        W14286   1.714   8.366   8.818
 6885W        W14287   3.205   1.194   8.821
 6886W        W14288   8.097   8.365   8.339
 6887W        W14289  15.369   5.986   9.775
 6888W        W14290  16.368   3.138   2.168
 6889W        W14291   6.608   2.186   9.330
 6890W        W14292  18.783   2.649   8.350
 6891W        W14293  13.424   2.624   1.710
 6892W        W14294  17.846   3.127   2.151
 6893W        W14295  15.388   7.387   1.693
 6894W        W14296  11.957   1.700   7.900
 6895W        W14297  17.352   5.986   1.193
 6896W        W14298  11.978   4.089   9.766
 6897W        W14299  10.026   6.438   9.786
 6898W        W14300   7.113   6.475   1.675
 6899W        W14301   5.647   3.102   2.160
 6900W        W14302  16.388   5.481   7.889
 6901W        W14303  12.485   0.248   9.789
 6902W        W14304  17.817   2.180   1.693
 6903W        W14305  19.309   5.002   1.212
 6904W        W14306   0.745   8.815   8.357
 6905W        W14307   0.251   0.254   1.224
 6906W        W14308   5.163   5.513   2.165
 6907W        W14309  17.354   6.446   7.878
 6908W        W14310   8.068   3.095   2.149
 6909W        W14311  18.822   2.663   0.268
 6910W        W14312   2.239   0.252   2.177
 6911W        W14313  19.301   3.105   9.787
 6912W        W14314  13.455   3.121   8.815
 6913W        W14315  15.891   5.035   2.167
 6914W        W14316   3.670   1.698   9.311
 6915W        W14317  13.941   7.891   0.268
 6916W        W14318  15.902   6.918   2.160
 6917W        W14319   5.133   9.770   2.180
 6918W        W14320  19.317   8.819   8.851
 6919W        W14321   6.114   8.857   0.253
 6920W        W14322   2.222   6.453   0.284
 6921W        W14323  18.297   4.543   7.873
 6922W        W14324   3.683   6.947   9.805
 6923W        W14325  18.820   0.737   2.169
 6924W        W14326   5.642   5.478   0.756
 6925W        W14327   1.230   4.536   1.191
 6926W        W14328   8.576   5.489   0.736
 6927W        W14329  10.021   8.378   2.164
 6928W        W14330  12.450   9.772   7.884
 6929W        W14331  13.431   5.994   9.783
 6930W        W14332  11.499   7.891   7.870
 6931W        W14333  16.361   5.493   1.193
 6932W        W14334   6.124   6.920   1.228
 6933W        W14335  12.972   5.479   9.763
 6934W        W14336  18.811   5.959   1.693
 6935W        W14337   9.049   8.369   2.181
 6936W        W14338  11.003   9.766   8.816
 6937W        W14339  12.479   6.929   8.832
 6938W        W14340  16.837   2.639   8.361
 6939W        W14341   0.772   3.611   9.782
 6940W        W14342   3.202   0.741   8.356
 6941W        W14343   3.193   6.441   7.412
 6942W        W14344   5.153   5.004   0.282
 6943W        W14345   0.250   3.574   0.758
 6944W        W14346   7.587   6.476   2.180
 6945W        W14347   7.092   2.659   0.736
 6946W        W14348  14.413   3.103   9.790
 6947W        W14349  16.858   2.641   7.418
 6948W        W14350   3.189   6.444   7.860
 6949W        W14351  13.934   9.296   0.238
 6950W        W14352   3.206   1.215   0.759
 6951W        W14353  11.471   5.505   0.751
 6952W        W14354  12.940   7.416   0.737
 6953W        W14355   4.641   4.539   0.266
 6954W        W14356  17.329   6.469   9.330
 6955W        W14357   6.592   2.631   2.154
 6956W        W14358   2.237   5.511   7.889
 6957W        W14359  10.012   8.362   9.790
 6958W        W14360  16.346   9.806   7.888
 6959W        W14361  15.894   0.241   1.208
 6960W        W14362   6.100   5.968   9.763
 6961W        W14363  15.393   0.737   2.640
 6962W        W14364  10.010   5.008   1.702
 6963W        W14365  14.911   4.556   8.849
 6964W        W14366   9.059   8.843   9.794
 6965W        W14367   1.734   2.634   2.166
 6966W        W14368  14.913   3.601   8.833
 6967W        W14369  17.353   0.729   0.241
 6968W        W14370   8.549   4.571   8.847
 6969W        W14371   8.081   5.478   8.366
 6970W        W14372  19.787   1.216   2.184
 6971W        W14373  16.842   2.648   7.894
 6972W        W14374   0.268   4.071   7.898
 6973W        W14375   5.644   8.840   2.179
 6974W        W14376  13.907   5.007   1.201
 6975W        W14377   0.775   0.242   0.747
 6976W        W14378  11.019   8.825   0.743
 6977W        W14379  17.848   1.211   1.697
 6978W        W14380   8.072   6.939   0.733
 6979W        W14381   0.249   6.926   7.863
 6980W        W14382  11.959   5.970   9.782
 6981W        W14383   1.747   8.834   9.288
 6982W        W14384   7.587   6.933   1.695
 6983W        W14385   3.181   5.496   1.236
 6984W        W14386   1.252   5.997   9.774
 6985W        W14387  12.452   5.964   9.313
 6986W        W14388   1.743   9.807   9.788
 6987W        W14389   0.290   5.019   2.153
 6988W        W14390  19.779   4.540   1.675
 6989W        W14391  18.332   6.432   1.684
 6990W        W14392   8.562   7.423   1.687
 6991W        W14393  19.308   3.142   0.759
 6992W        W14394  17.835   5.496   7.898
 6993W        W14395  19.294   9.784   9.301
 6994W        W14396  10.494   0.279   7.874
 6995W        W14397  19.311   6.466   8.364
 6996W        W14398   5.152   1.209   7.889
 6997W        W14399   0.287   0.275   9.789
 6998W        W14400   8.051   0.748   1.679
 6999W        W14401  13.458   4.554   9.305
 7000W        W14402  18.339   1.235   8.356
 7001W        W14403  19.768   4.555   7.895
 7002W        W14404   4.640   5.961   1.235
 7003W        W14405  16.345   1.712   1.203
 7004W        W14406  14.904   3.128   7.392
 7005W        W14407   3.208   0.737   2.174
 7006W        W14408  18.307   3.136   8.347
 7007W        W14409  17.337   9.808   8.354
 7008W        W14410   4.660   1.225   7.428
 7009W        W14411  14.423   6.929   2.153
 7010W        W14412  16.862   6.437   1.713
 7011W        W14413   8.579   0.761   2.158
 7012W        W14414   7.578   5.028   1.230
 7013W        W14415  11.986   2.665   1.675
 7014W        W14416   3.175   6.441   0.745
 7015W        W14417  15.874   3.594   1.705
 7016W        W14418  18.828   6.936   8.832
 7017W        W14419  15.385   9.288   1.194
 7018W        W14420   4.189   4.060   2.176
 7019W        W14421   5.652   5.998   9.774
 7020W        W14422  10.028   6.921   7.902
 7021W        W14423   6.611   0.757   1.696
 7022W        W14424   5.653   6.460   7.896
 7023W        W14425  18.318   9.801   1.197
 7024W        W14426  13.906   3.613   2.149
 7025W        W14427   8.066   7.398   8.812
 7026W        W14428   8.080   5.502   2.147
 7027W        W14429  17.354   6.924   2.163
 7028W        W14430   8.073   0.260   8.816
 7029W        W14431   0.253   3.114   8.845
 7030W        W14432  14.405   1.213   0.266
 7031W        W14433   3.666   7.400   7.872
 7032W        W14434  10.496   6.945   1.216
 7033W        W14435   0.257   5.479   9.773
 7034W        W14436  19.761   5.965   8.810
 7035W        W14437   9.039   7.404   8.376
 7036W        W14438   1.227   8.373   1.218
 7037W        W14439  11.478   9.798   1.208
 7038W        W14440   8.538   8.345   8.811
 7039W        W14441   6.614   2.661   0.266
 7040W        W14442  18.815   3.116   0.243
 7041W        W14443   7.592   7.900   0.248
 7042W        W14444   1.235   0.277   1.684
 7043W        W14445   6.103   4.560   0.284
 7044W        W14446  12.941   5.960   9.303
 7045W        W14447  15.856   3.125   2.630
 7046W        W14448  15.370   4.542   2.161
 7047W        W14449   3.702   3.582   9.807
 7048W        W14450   8.564   3.135   3.109
 7049W        W14451  19.290   5.480   1.678
 7050W        W14452   6.134   8.849   8.826
 7051W        W14453  16.852   4.524   2.180
 7052W        W14454  11.491   9.775   0.239
 7053W        W14455   2.198   5.044   9.788
 7054W        W14456  16.841   7.857   7.905
 7055W        W14457  10.021   8.840   1.686
 7056W        W14458   6.589   3.573   1.198
 7057W        W14459  10.976   0.274   7.879
 7058W        W14460   5.650   7.392   0.728
 7059W        W14461   7.103   6.434   0.268
 7060W        W14462  13.937   1.678   2.621
 7061W        W14463  19.789   8.337   8.342
 7062W        W14464  17.825   8.812   2.178
 7063W        W14465  15.896   4.089   1.684
 7064W        W14466   4.177   1.205   9.331
 7065W        W14467  11.002   5.957   0.264
 7066W        W14468   5.156   6.449   1.228
 7067W        W14469   4.148   1.204   2.189
 7068W        W14470   0.271   9.321   0.717
 7069W        W14471  16.834   3.611   0.245
 7070W        W14472  19.774   4.065   1.214
 7071W        W14473  18.320   7.870   8.374
 7072W        W14474   0.744   2.660   0.757
 7073W        W14475  18.827   1.672   1.191
 7074W        W14476   8.581   0.254   2.160
 7075W        W14477   8.540   9.313   0.284
 7076W        W14478   1.732   1.195   8.350
 7077W        W14479  17.337   2.190   9.784
 7078W        W14480  13.936   2.632   2.150
 7079W        W14481  13.933   0.245   9.779
 7080W        W14482  15.862   2.646   8.840
 7081W        W14483   8.562   5.515   8.352
 7082W        W14484   7.075   0.274   0.717
 7083W        W14485   2.708   6.431   0.277
 7084W        W14486   8.577   9.290   7.895
 7085W        W14487   6.607   5.521   1.684
 7086W        W14488  15.899   6.463   2.190
 7087W        W14489   6.111   4.072   1.214
 7088W        W14490  16.837   9.330   8.829
 7089W        W14491  19.764   6.925   9.325
 7090W        W14492   2.221   8.358   2.175
 7091W        W14493  15.896   8.369   0.251
 7092W        W14494   3.185   5.517   0.724
 7093W        W14495   1.755   9.327   9.782
 7094W        W14496  10.988   4.059   0.751
 7095W        W14497   8.579   3.589   8.373
 7096W        W14498  11.475   6.928   9.317
 7097W        W14499   8.555   2.637   1.708
 7098W        W14500  11.486   0.278   9.318
 7099W        W14501   5.610   0.743   0.261
 7100W        W14502  11.481   0.742   2.164
 7101W        W14503   3.206   3.103   2.167
 7102W        W14504  19.316   9.288   8.854
 7103W        W14505   9.533   4.071   2.147
 7104W        W14506  10.505   2.157   8.810
 7105W        W14507  11.470   1.704   9.332
 7106W        W14508   1.734   4.535   0.759
 7107W        W14509  11.979   4.555   0.275
 7108W        W14510  19.804   7.429   2.178
 7109W        W14511  12.943   1.690   8.345
 7110W        W14512  19.290   2.659   0.752
 7111W        W14513  12.934   2.625   8.358
 7112W        W14514  10.986   8.830   9.795
 7113W        W14515  12.484   3.124   9.765
 7114W        W14516  11.971   9.771   1.704
 7115W        W14517   7.108   9.286   8.348
 7116W        W14518   3.680   3.578   2.166
 7117W        W14519   9.522   3.101   9.330
 7118W        W14520   9.037   6.471   1.678
 7119W        W14521   1.734   9.312   0.754
 7120W        W14522   0.777   3.099   9.767
 7121W        W14523  13.433   0.740   7.901
 7122W        W14524  16.874   9.784   7.413
 7123W        W14525  15.368   0.244   1.203
 7124W        W14526   7.086   0.248   9.305
 7125W        W14527  19.764   7.382   0.283
 7126W        W14528  17.341   5.965   1.680
 7127W        W14529   9.514   9.300   7.867
 7128W        W14530  15.894   8.361   2.158
 7129W        W14531   2.717   8.825   1.669
 7130W        W14532  16.344   3.140   0.748
 7131W        W14533   6.620   0.241   9.795
 7132W        W14534  18.336   6.915   7.861
 7133W        W14535  16.852   5.500   2.186
 7134W        W14536  10.986   3.613   9.777
 7135W        W14537   0.740   8.378   8.813
 7136W        W14538  12.969   4.568   9.799
 7137W        W14539  13.945   6.460   1.677
 7138W        W14540   4.152   8.342   8.845
 7139W        W14541  11.003   4.550   8.848
 7140W        W14542  16.846   1.712   0.734
 7141W        W14543   5.645   9.296   9.776
 7142W        W14544  14.422   1.673   9.784
 7143W        W14545   6.616   2.630   1.212
 7144W        W14546   9.513   5.967   0.723
 7145W        W14547   5.160   2.170   9.792
 7146W        W14548  17.359   6.470   8.342
 7147W        W14549   7.101   5.993   1.700
 7148W        W14550  13.910   9.786   0.282
 7149W        W14551  18.801   3.596   0.264
 7150W        W14552   4.663   2.168   9.307
 7151W        W14553  17.317   9.323   1.220
 7152W        W14554   3.695   1.211   8.838
 7153W        W14555   7.117   7.392   2.143
 7154W        W14556  19.799   0.734   2.155
 7155W        W14557   4.635   3.099   8.811
 7156W        W14558   0.739   1.694   8.848
 7157W        W14559   8.086   1.680   8.827
 7158W        W14560   2.232   6.943   9.777
 7159W        W14561  15.383   5.964   8.339
 7160W        W14562   8.576   4.549   8.356
 7161W        W14563   2.216   4.059   8.367
 7162W        W14564   6.598   4.571   8.334
 7163W        W14565   8.076   2.639   9.315
 7164W        W14566   7.079   0.282   1.214
 7165W        W14567   9.550   2.623   8.855
 7166W        W14568  14.426   8.351   2.147
 7167W        W14569   7.118   8.366   2.624
 7168W        W14570  19.307   0.254   1.236
 7169W        W14571   0.766   7.423   1.205
 7170W        W14572  18.311   5.517   1.680
 7171W        W14573  15.386   4.571   9.790
 7172W        W14574  18.311   5.046   9.782
 7173W        W14575   7.598   3.113   7.898
 7174W        W14576   2.684   6.939   1.709
 7175W        W14577  19.309   6.923   9.329
 7176W        W14578  16.382   2.182   9.784
 7177W        W14579   4.673   7.396   9.777
 7178W        W14580  12.947   6.438   0.279
 7179W        W14581  14.897   8.339   7.887
 7180W        W14582  10.524   3.587   2.176
 7181W        W14583   3.674   0.751   7.860
 7182W        W14584   0.265   2.188   8.855
 7183W        W14585  10.033   4.093   1.236
 7184W        W14586  16.389   9.313   1.669
 7185W        W14587   6.115   5.044   2.189
 7186W        W14588   6.103   8.338   9.311
 7187W        W14589  17.833   6.435   2.644
 7188W        W14590  15.398   3.593   0.260
 7189W        W14591   5.137   5.003   2.166
 7190W        W14592   7.117   7.399   0.724
 7191W        W14593   7.106   1.201   1.667
 7192W        W14594  11.004   9.803   0.267
 7193W        W14595   1.231   8.840   7.858
 7194W        W14596   1.248   2.163   8.827
 7195W        W14597   2.714   2.653   0.720
 7196W        W14598  11.023   7.382   1.222
 7197W        W14599  14.908   3.116   2.145
 7198W        W14600  12.969   8.377   8.845
 7199W        W14601   8.559   4.557   0.737
 7200W        W14602   0.253   0.730   9.294
 7201W        W14603   5.621   8.344   8.827
 7202W        W14604   2.710   8.833   7.867
 7203W        W14605   4.166   3.609   8.348
 7204W        W14606   7.106   6.467   0.742
 7205W        W14607   9.534   1.707   1.203
 7206W        W14608   0.757   6.923   9.796
 7207W        W14609   1.222   6.468   8.856
 7208W        W14610  17.824   5.965   0.284
 7209W        W14611  19.285   7.898   9.797
 7210W        W14612   3.189   4.093   7.871
 7211W        W14613   5.127   4.078   1.695
 7212W        W14614  15.883   7.874   1.214
 7213W        W14615   2.690   4.068   7.414
 7214W        W14616  18.790   0.721   1.211
 7215W        W14617  19.768   2.632   1.236
 7216W        W14618   0.768   9.290   2.652
 7217W        W14619   9.553   5.000   2.165
 7218W        W14620   3.660   9.304   1.216
 7219W        W14621  16.875   2.163   9.768
 7220W        W14622  11.954   5.961   9.292
 7221W        W14623  19.277   5.965   7.872
 7222W        W14624   8.068   3.106   2.642
 7223W        W14625   2.687   6.462   8.856
 7224W        W14626   1.232   4.546   0.249
 7225W        W14627   3.664   2.170   2.629
 7226W        W14628  16.850   8.341   7.419
 7227W        W14629   3.693   2.623   9.304
 7228W        W14630   1.223   7.894   1.226
 7229W        W14631  13.420   0.260   8.363
 7230W        W14632  16.352   6.917   1.229
 7231W        W14633  11.503   8.834   2.150
 7232W        W14634   2.242   3.104   9.319
 7233W        W14635  11.503   5.497   1.691
 7234W        W14636  14.914   5.956   0.726
 7235W        W14637   5.634   5.497   7.427
 7236W        W14638  16.866   0.751   2.153
 7237W        W14639   8.574   7.900   9.805
 7238W        W14640   3.685   3.111   8.356
 7239W        W14641  16.362   7.885   9.310
 7240W        W14642   2.220   6.926   0.740
 7241W        W14643   9.554   3.595   2.176
 7242W        W14644   4.175   5.982   1.674
 7243W        W14645   1.245   7.398   1.211
 7244W        W14646   7.097   6.449   2.176
 7245W        W14647   3.676   8.850   9.292
 7246W        W14648   4.668   0.739   1.701
 7247W        W14649   1.251   2.175   7.875
 7248W        W14650   6.612   0.281   2.152
 7249W        W14651  18.336   0.285   7.886
 7250W        W14652   2.689   5.495   9.789
 7251W        W14653   1.755   1.687   0.275
 7252W        W14654  14.906   1.232   9.291
 7253W        W14655  16.851   1.223   0.756
 7254W        W14656  17.319   3.141   9.775
 7255W        W14657   4.189   7.410   8.346
 7256W        W14658   7.592   5.494   9.327
 7257W        W14659  11.988   5.995   0.754
 7258W        W14660  16.376   2.647   0.743
 7259W        W14661   8.060   5.027   1.697
 7260W        W14662  10.988   9.287   2.633
 7261W        W14663   7.561   5.004   0.732
 7262W        W14664   1.719   3.128   1.205
 7263W        W14665   4.156   8.359   9.296
 7264W        W14666  18.816   2.177   1.208
 7265W        W14667  13.452   6.457   1.695
 7266W        W14668  11.984   9.768   1.221
 7267W        W14669   4.648   5.521   8.363
 7268W        W14670  16.368   4.569   8.845
 7269W        W14671  10.032   9.318   1.224
 7270W        W14672   6.118   1.676   9.783
 7271W        W14673  17.844   9.796   0.760
 7272W        W14674  13.947   0.277   8.847
 7273W        W14675  15.401   4.563   8.339
 7274W        W14676  11.007   0.278   2.150
 7275W        W14677  15.409   3.582   8.369
 7276W        W14678   1.721   5.046   8.822
 7277W        W14679   4.182   6.908   8.812
 7278W        W14680   5.652   4.064   1.201
 7279W        W14681  13.944   1.208   2.168
 7280W        W14682   2.243   7.392   1.702
 7281W        W14683  14.922   6.476   9.328
 7282W        W14684   3.189   6.909   8.817
 7283W        W14685  16.874   5.506   0.729
 7284W        W14686  15.867   4.541   0.742
 7285W        W14687   0.252   1.209   2.185
 7286W        W14688  11.008   3.102   0.282
 7287W        W14689  10.495   2.145   2.167
 7288W        W14690  17.826   2.185   0.243
 7289W        W14691  12.939   5.037   0.281
 7290W        W14692   9.514   2.160   0.284
 7291W        W14693  13.434   2.166   9.332
 7292W        W14694   1.261   9.786   8.819
 7293W        W14695  16.364   1.210   9.777
 7294W        W14696   3.217   5.961   2.621
 7295W        W14697   0.247   4.060   8.347
 7296W        W14698  18.822   9.289   9.307
 7297W        W14699  11.969   3.120   2.187
 7298W        W14700   9.067   2.642   2.163
 7299W        W14701  12.465   3.108   0.759
 7300W        W14702   7.582   2.144   0.752
 7301W        W14703   7.582   0.276   8.376
 7302W        W14704  14.892   9.797   9.766
 7303W        W14705  11.491   1.191   9.330
 7304W        W14706   0.767   8.824   7.901
 7305W        W14707  18.787   6.430   0.284
 7306W        W14708   9.541   1.693   8.841
 7307W        W14709  10.031   1.226   1.216
 7308W        W14710   6.126   4.051   1.704
 7309W        W14711   9.066   5.013   8.349
 7310W        W14712  11.486   5.510   2.161
 7311W        W14713   3.193   3.112   0.265
 7312W        W14714   3.692   9.325   8.853
 7313W        W14715  18.821   5.018   0.242
 7314W        W14716   7.585   8.842   0.729
 7315W        W14717   9.053   5.007   2.185
 7316W        W14718   4.163   3.612   9.765
 7317W        W14719   0.760   2.156   1.710
 7318W        W14720  19.311   5.034   8.357
 7319W        W14721   8.078   9.317   0.718
 7320W        W14722  13.920   9.775   1.205
 7321W        W14723   7.093   7.902   0.259
 7322W        W14724  16.364   1.226   8.361
 7323W        W14725  11.955   5.508   1.697
 7324W        W14726   2.240   6.461   7.896
 7325W        W14727  12.442   8.846   9.804
 7326W        W14728  15.384   0.719   0.272
 7327W        W14729  11.975   8.820   9.306
 7328W        W14730  14.890   3.609   8.365
 7329W        W14731  15.861   4.565   7.882
 7330W        W14732  12.957   9.809   9.790
 7331W        W14733   5.155   2.664   8.854
 7332W        W14734   9.516   3.140   8.814
 7333W        W14735  11.018   5.008   0.731
 7334W        W14736   0.737   6.914   8.351
 7335W        W14737   0.748   1.675   1.233
 7336W        W14738   8.055   9.775   8.819
 7337W        W14739  15.895   5.513   7.879
 7338W        W14740   3.196   2.175   0.284
 7339W        W14741   9.524   2.146   1.198
 7340W        W14742   2.202   2.639   8.847
 7341W        W14743   1.266   5.514   8.839
 7342W        W14744  10.990   7.893   9.292
 7343W        W14745  13.418   2.167   1.221
 7344W        W14746  18.295   5.492   9.781
 7345W        W14747   2.226   9.303   1.698
 7346W        W14748   7.119   1.699   7.411
 7347W        W14749  13.917   3.111   1.677
 7348W        W14750  10.528   0.248   9.797
 7349W        W14751  18.800   4.527   1.227
 7350W        W14752  13.921   8.335   9.315
 7351W        W14753   8.082   2.652   2.148
 7352W        W14754   4.165   6.941   7.409
 7353W        W14755  12.957   5.991   7.889
 7354W        W14756  18.818   7.417   0.250
 7355W        W14757  19.771   6.909   0.761
 7356W        W14758  13.914   9.791   0.751
 7357W        W14759  13.452   3.578   7.890
 7358W        W14760  10.508   0.753   8.350
 7359W        W14761  15.390   8.854   2.188
 7360W        W14762   8.093   8.852   2.169
 7361W        W14763   9.537   3.129   0.267
 7362W        W14764   4.679   3.589   9.799
 7363W        W14765  11.952   8.852   7.867
 7364W        W14766  13.416   3.598   8.834
 7365W        W14767  18.337   0.721   0.731
 7366W        W14768   5.145   7.418   2.145
 7367W        W14769  14.900   3.582   9.330
 7368W        W14770  17.826   0.734   0.723
 7369W        W14771   3.684   3.119   9.309
 7370W        W14772  12.000   0.719   0.715
 7371W        W14773   0.765   9.304   8.829
 7372W        W14774   3.215   0.715   9.775
 7373W        W14775   6.137   5.497   2.185
 7374W        W14776   4.652   5.487   1.202
 7375W        W14777  11.499   3.587   1.220
 7376W        W14778  17.366   6.429   0.245
 7377W        W14779   6.604   8.339   9.792
 7378W        W14780  12.972   8.828   9.297
 7379W        W14781  14.885   7.420   1.194
 7380W        W14782   2.694   6.446   9.788
 7381W        W14783  11.000   1.221   2.180
 7382W        W14784   5.152   3.131   1.231
 7383W        W14785   7.601   9.806   1.216
 7384W        W14786  19.776   7.862   0.268
 7385W        W14787   5.148   5.991   0.753
 7386W        W14788  15.902   4.085   9.781
 7387W        W14789   1.742   1.701   8.843
 7388W        W14790   1.264   9.323   0.276
 7389W        W14791  10.993   1.195   7.875
 7390W        W14792   0.757   2.620   8.824
 7391W        W14793   3.664   6.937   7.881
 7392W        W14794   9.542   6.906   7.861
 7393W        W14795   0.264   5.972   8.854
 7394W        W14796   9.053   8.340   8.337
 7395W        W14797   9.560   4.552   1.230
 7396W        W14798   0.776   4.057   2.636
 7397W        W14799  11.011   5.961   7.901
 7398W        W14800   1.708   9.792   7.889
 7399W        W14801  17.837   8.856   8.841
 7400W        W14802  13.434   7.394   0.719
 7401W        W14803  11.015   3.125   9.796
 7402W        W14804   6.597   2.188   2.157
 7403W        W14805   2.218   8.357   1.675
 7404W        W14806   2.698   2.143   9.290
 7405W        W14807  10.028   5.520   1.677
 7406W        W14808  12.000   6.431   0.244
 7407W        W14809  19.769   6.939   8.816
 7408W        W14810  12.973   4.566   0.758
 7409W        W14811  15.870   7.399   9.783
 7410W        W14812  17.359   2.619   9.772
 7411W        W14813   9.055   4.089   0.275
 7412W        W14814  17.336   8.363   2.163
 7413W        W14815   4.165   5.976   8.835
 7414W        W14816  17.825   5.027   8.837
 7415W        W14817  19.313   5.002   9.293
 7416W        W14818  18.828   2.159   9.291
 7417W        W14819   4.637   2.650   2.148
 7418W        W14820  11.953   1.194   8.842
 7419W        W14821   9.526   1.223   8.356
 7420W        W14822  13.949   2.622   7.869
 7421W        W14823   4.176   8.372   2.174
 7422W        W14824   4.171   3.113   2.180
 7423W        W14825   6.618   6.437   2.156
 7424W        W14826  16.366   8.344   1.695
 7425W        W14827   6.135   6.939   2.635
 7426W        W14828   4.180   9.776   7.874
 7427W        W14829  18.324   9.795   9.805
 7428W        W14830  16.848   0.280   7.900
 7429W        W14831  15.880   2.162   1.203
 7430W        W14832   5.615   5.986   0.761
 7431W        W14833   6.141   1.686   1.205
 7432W        W14834  13.921   0.732   0.262
 7433W        W14835  11.473   4.059   8.842
 7434W        W14836   7.093   2.665   8.339
 7435W        W14837  10.491   2.626   1.199
 7436W        W14838  13.423   6.939   8.367
 7437W        W14839  14.416   8.834   8.810
 7438W        W14840  14.421   7.388   7.863
 7439W        W14841   4.668   3.613   8.821
 7440W        W14842   7.561   7.387   9.320
 7441W        W14843   3.200   8.371   2.167
 7442W        W14844   4.653   7.388   1.223
 7443W        W14845  19.289   4.551   2.650
 7444W        W14846  11.487   6.929   0.759
 7445W        W14847   6.615   9.781   1.707
 7446W        W14848  16.368   6.473   0.745
 7447W        W14849   8.051   6.455   9.326
 7448W        W14850  15.395   4.542   7.897
 7449W        W14851   2.230   9.793   7.888
 7450W        W14852  13.457   9.331   1.699
 7451W        W14853   1.730   9.763   9.288
 7452W        W14854   7.563   9.784   8.359
 7453W        W14855  14.416   5.047   7.861
 7454W        W14856  10.028   8.854   0.243
 7455W        W14857  11.982   4.525   1.203
 7456W        W14858   9.059   4.064   1.216
 7457W        W14859   1.231   1.216   0.739
 7458W        W14860  11.977   7.887   8.351
 7459W        W14861  11.470   7.901   1.694
 7460W        W14862  13.421   4.090   0.269
 7461W        W14863   6.133   2.633   1.212
 7462W        W14864   0.282   5.019   8.825
 7463W        W14865  13.942   0.731   9.314
 7464W        W14866   4.178   6.934   9.772
 7465W        W14867  11.014   7.876   1.693
 7466W        W14868   1.222   4.528   8.852
 7467W        W14869  19.311   6.432   2.146
 7468W        W14870   7.604   6.912   9.808
 7469W        W14871   0.278   0.274   0.263
 7470W        W14872   6.106   0.273   0.270
 7471W        W14873   0.257   4.081   0.266
 7472W        W14874   7.594   6.926   7.868
 7473W        W14875   3.206   7.387   0.754
 7474W        W14876  12.479   5.505   9.789
 7475W        W14877   4.180   8.340   0.243
 7476W        W14878   0.742   0.258   7.893
 7477W        W14879  17.824   9.326   0.262
 7478W        W14880  15.892   5.970   2.152
 7479W        W14881   7.587   0.276   8.812
 7480W        W14882   6.592   8.379   1.233
 7481W        W14883  16.854   1.711   2.163
 7482W        W14884   9.062   7.897   0.273
 7483W        W14885   6.136   9.330   7.866
 7484W        W14886  10.982   7.862   1.207
 7485W        W14887   5.619   3.131   7.899
 7486W        W14888  15.884   1.707   8.375
 7487W        W14889   0.268   3.607   0.241
 7488W        W14890  19.794   2.161   1.670
 7489W        W14891  13.460   0.279   9.290
 7490W        W14892   8.079   6.913   9.807
 7491W        W14893  16.387   3.136   8.353
 7492W        W14894  18.803   6.463   8.358
 7493W        W14895   7.082   7.409   1.212
 7494W        W14896  12.476   4.094   9.772
 7495W        W14897   6.593   5.014   9.780
 7496W        W14898   4.150   5.484   1.694
 7497W        W14899   9.536   5.024   7.882
 7498W        W14900  13.930   4.085   8.834
 7499W        W14901  18.807   6.906   0.745
 7500W        W14902  10.034   5.023   9.784
 7501W        W14903   9.540   6.438   9.800
 7502W        W14904  15.381   7.876   1.683
 7503W        W14905   3.203   4.570   9.296
 7504W        W14906   0.764   3.616   8.347
 7505W        W14907  18.321   8.834   8.349
 7506W        W14908  19.297   7.428   0.721
 7507W        W14909   5.646   6.432   9.302
 7508W        W14910  15.869   6.940   7.893
 7509W        W14911   9.030   7.406   9.793
 7510W        W14912   7.094   7.897   8.842
 7511W        W14913  17.356   9.781   0.243
 7512W        W14914   9.515   7.881   1.230
 7513W        W14915   3.696   9.331   1.690
 7514W        W14916  19.293   4.048   9.325
 7515W        W14917   8.074   5.982   8.358
 7516W        W14918  14.905   2.166   1.695
 7517W        W14919  17.359   5.514   1.203
 7518W        W14920   8.064   7.904   9.785
 7519W        W14921   1.732   5.008   7.870
 7520W        W14922   8.557   5.517   0.279
 7521W        W14923  11.017   7.889   8.848
 7522W        W14924   8.086   0.746   8.361
 7523W        W14925  11.002   3.584   2.187
 7524W        W14926  10.036   3.605   1.692
 7525W        W14927  10.015   8.814   2.159
 7526W        W14928   9.553   0.745   1.686
 7527W        W14929   8.082   5.998   9.289
 7528W        W14930   8.555   9.329   9.772
 7529W        W14931   5.145   8.823   9.325
 7530W        W14932  17.364   8.811   1.698
 7531W        W14933  15.867   5.956   0.719
 7532W        W14934  15.891   1.214   0.260
 7533W        W14935  16.857   7.421   9.780
 7534W        W14936   5.138   2.627   9.775
 7535W        W14937  10.997   8.813   9.318
 7536W        W14938  15.886   6.475   0.253
 7537W        W14939  12.964   5.018   7.866
 7538W        W14940  17.318   6.944   9.795
 7539W        W14941   9.558   9.786   7.860
 7540W        W14942   5.621   3.122   8.350
 7541W        W14943  18.322   5.005   8.820
 7542W        W14944  16.372   5.498   7.403
 7543W        W14945   1.743   5.503   2.161
 7544W        W14946  14.401   2.144   9.329
 7545W        W14947   9.026   9.769   0.262
 7546W        W14948   3.196   8.366   9.298
 7547W        W14949  18.338   7.424   1.219
 7548W        W14950   8.564   7.898   1.697
 7549W        W14951  16.372   2.643   8.353
 7550W        W14952  15.394   2.174   1.676
 7551W        W14953   5.625   5.497   8.371
 7552W        W14954  17.365   3.592   0.268
 7553W        W14955   5.624   4.074   0.720
 7554W        W14956  15.865   8.374   9.807
 7555W        W14957   2.205   0.749   8.814
 7556W        W14958  10.005   5.508   8.829
 7557W        W14959   4.659   8.374   7.882
 7558W        W14960   6.129   8.338   7.892
 7559W        W14961  17.839   7.386   9.780
 7560W        W14962   6.119   1.191   1.209
 7561W        W14963   2.728   5.489   8.355
 7562W        W14964  14.895   5.482   8.826
 7563W        W14965   5.144   4.544   9.304
 7564W        W14966  13.917   5.517   9.763
 7565W        W14967  13.428   6.432   8.368
 7566W        W14968  15.394   3.616   1.695
 7567W        W14969   8.058   8.841   9.309
 7568W        W14970  11.487   5.479   9.763
 7569W        W14971   4.645   0.280   0.726
 7570W        W14972  17.355   7.421   1.680
 7571W        W14973   4.678   5.014   0.730
 7572W        W14974  17.849   8.829   7.903
 7573W        W14975   6.112   7.894   0.745
 7574W        W14976  11.010   6.475   8.367
 7575W        W14977  16.845   4.564   8.820
 7576W        W14978  12.463   1.700   9.288
 7577W        W14979  19.304   5.043   2.185
 7578W        W14980  19.794   2.164   9.799
 7579W        W14981   8.084   3.129   9.320
 7580W        W14982   7.105   7.873   2.624
 7581W        W14983   9.540   1.700   0.729
 7582W        W14984   9.042   1.203   0.277
 7583W        W14985  19.314   2.666   8.817
 7584W        W14986   3.687   5.495   1.681
 7585W        W14987  12.951   8.849   1.672
 7586W        W14988   7.605   2.149   0.278
 7587W        W14989   2.727   7.385   8.374
 7588W        W14990   4.172   0.750   2.164
 7589W        W14991  18.799   4.565   0.267
 7590W        W14992   1.265   0.268   0.723
 7591W        W14993  17.819   5.033   9.306
 7592W        W14994   4.669   2.161   9.768
 7593W        W14995   1.253   4.532   7.887
 7594W        W14996   0.732   5.965   7.417
 7595W        W14997  12.483   9.297   7.865
 7596W        W14998   9.533   1.709   9.795
 7597W        W14999  19.283   0.755   8.363
 7598W        W15000   0.279   7.419   9.307
 7599W        W15001   1.229   8.361   8.853
 7600W        W15002   2.235   5.022   8.367
 7601W        W15003   7.082   2.170   8.349
 7602W        W15004  17.360   0.255   2.158
 7603W        W15005   9.519   6.443   8.812
 7604W        W15006  19.293   6.438   0.733
 7605W        W15007  11.961   6.455   0.729
 7606W        W15008   7.121   5.968   8.857
 7607W        W15009  10.488   5.017   1.210
 7608W        W15010  12.935   2.641   8.846
 7609W        W15011   9.549   3.609   1.208
 7610W        W15012  16.355   0.752   1.192
 7611W        W15013  12.932   7.868   1.692
 7612W        W15014  12.462   7.381   8.344
 7613W        W15015   1.709   9.318   8.835
 7614W        W15016   4.657   8.854   1.235
 7615W        W15017   1.258   0.751   8.854
 7616W        W15018   7.088   5.993   0.733
 7617W        W15019  11.985   6.945   9.307
 7618W        W15020  10.981   8.356   0.757
 7619W        W15021   5.648   1.204   0.746
 7620W        W15022   6.107   3.615   0.256
 7621W        W15023  16.834   9.771   2.149
 7622W        W15024  19.804   6.943   8.355
 7623W        W15025  16.870   1.232   0.277
 7624W        W15026  14.396   9.298   9.306
 7625W        W15027   1.228   0.742   9.792
 7626W        W15028   6.623   0.732   0.754
 7627W        W15029   1.736   8.850   0.254
 7628W        W15030   8.088   6.938   7.414
 7629W        W15031   3.192   5.486   8.836
 7630W        W15032  10.028   7.415   8.844
 7631W        W15033  15.867   2.666   1.219
 7632W        W15034   6.623   1.677   8.843
 7633W        W15035   3.210   0.267   0.256
 7634W        W15036   6.603   0.252   0.275
 7635W        W15037  13.946   0.755   1.226
 7636W        W15038  16.856   8.820   8.819
 7637W        W15039  14.409   9.766   9.805
 7638W        W15040   3.193   6.946   7.872
 7639W        W15041  10.498   7.407   2.180
 7640W        W15042   0.780   2.635   1.677
 7641W        W15043   0.741   6.906   2.166
 7642W        W15044  10.502   0.718   0.239
 7643W        W15045  18.816   2.176   2.655
 7644W        W15046  15.411   0.753   9.315
 7645W        W15047   0.735   9.300   9.793
 7646W        W15048   3.702   2.648   9.765
 7647W        W15049   5.631   1.684   7.889
 7648W        W15050  14.901   7.882   9.797
 7649W        W15051   6.621   5.037   0.738
 7650W        W15052   5.632   5.019   1.211
 7651W        W15053  18.809   6.475   9.770
 7652W        W15054   9.045   5.993   9.308
 7653W        W15055  10.980   0.758   1.221
 7654W        W15056  11.467   4.091   0.736
 7655W        W15057   9.066   6.468   0.261
 7656W        W15058   9.548   9.785   1.680
 7657W        W15059   2.203   9.790   2.162
 7658W        W15060   9.541   8.375   0.748
 7659W        W15061   3.667   8.850   9.779
 7660W        W15062   3.666   6.453   1.204
 7661W        W15063  10.498   4.545   0.271
 7662W        W15064   1.268   2.163   0.254
 7663W        W15065  17.321   6.947   9.323
 7664W        W15066   1.725   7.388   7.870
 7665W        W15067   8.091   6.469   0.271
 7666W        W15068   0.763   9.781   2.164
 7667W        W15069  15.412   8.821   1.237
 7668W        W15070   7.599   8.336   0.242
 7669W        W15071  10.019   2.181   0.238
 7670W        W15072  16.342   8.353   9.778
 7671W        W15073  11.988   5.992   8.344
 7672W        W15074   7.602   7.862   9.322
 7673W        W15075  19.292   6.475   9.806
 7674W        W15076   2.223   1.210   1.708
 7675W        W15077   3.212   6.905   1.700
 7676W        W15078  14.408   0.269   9.791
 7677W        W15079  12.471   4.072   7.878
 7678W        W15080  11.484   9.315   1.207
 7679W        W15081  15.875   2.664   0.716
 7680W        W15082  15.382   4.073   1.705
 7681W        W15083   1.242   7.389   9.305
 7682W        W15084  19.289   1.686   8.361
 7683W        W15085   0.744   2.625   9.804
 7684W        W15086   0.250   6.458   9.762
 7685W        W15087  11.480   7.418   1.192
 7686W        W15088  10.026   2.151   9.293
 7687W        W15089   2.228   1.677   9.778
 7688W        W15090   2.226   4.050   2.154
 7689W        W15091   4.654   6.937   7.395
 7690W        W15092  16.389   5.970   0.256
 7691W        W15093   0.247   3.138   1.192
 7692W        W15094   8.556   0.748   7.904
 7693W        W15095  16.847   3.108   9.296
 7694W        W15096   9.534   1.218   0.280
 7695W        W15097   4.176   2.151   2.172
 7696W        W15098  10.977   3.580   8.368
 7697W        W15099  19.305   4.525   1.227
 7698W        W15100   9.052   0.742   0.723
 7699W        W15101  15.385   9.809   9.311
 7700W        W15102  17.831   2.180   1.218
 7701W        W15103   2.213   2.173   9.775
 7702W        W15104   6.586   1.688   1.693
 7703W        W15105   1.221   2.645   8.854
 7704W        W15106   8.559   3.608   1.228
 7705W        W15107   0.286   7.894   1.690
 7706W        W15108   0.258   8.811   1.208
 7707W        W15109  14.413   0.749   8.369
 7708W        W15110  19.803   5.486   9.771
 7709W        W15111   3.689   4.082   1.678
 7710W        W15112   5.147   6.473   9.781
 7711W        W15113   3.174   5.963   9.801
 7712W        W15114  10.013   7.388   0.267
 7713W        W15115   6.621   7.407   1.192
 7714W        W15116   5.166   5.989   8.820
 7715W        W15117   1.244   7.400   2.147
 7716W        W15118  11.477   0.762   8.850
 7717W        W15119   4.635   0.240   9.781
 7718W        W15120   5.137   5.026   0.749
 7719W        W15121   1.746   6.438   8.354
 7720W        W15122   7.081   3.591   8.847
 7721W        W15123  15.896   0.741   1.230
 7722W        W15124  15.856   0.245   9.799
 7723W        W15125  17.854   5.032   0.274
 7724W        W15126   9.549   8.826   7.903
 7725W        W15127   0.757   4.077   0.283
 7726W        W15128   7.109   9.766   9.774
 7727W        W15129   2.712   5.993   2.186
 7728W        W15130  18.815   5.974   9.316
 7729W        W15131   7.602   5.501   1.685
 7730W        W15132   5.650   5.010   9.768
 7731W        W15133  12.456   2.159   8.376
 7732W        W15134  19.786   3.106   8.855
 7733W        W15135   3.178   0.252   9.770
 7734W        W15136  17.833   8.338   2.649
 7735W        W15137   4.164   4.546   8.346
 7736W        W15138   1.711   3.578   9.771
 7737W        W15139  14.427   5.004   0.735
 7738W        W15140  11.467   3.606   7.877
 7739W        W15141   7.566   3.103   8.844
 7740W        W15142  17.806   5.490   7.413
 7741W        W15143  11.992   6.472   8.360
 7742W        W15144  18.795   6.926   1.677
 7743W        W15145   8.063   6.470   9.801
 7744W        W15146   4.679   4.089   8.852
 7745W        W15147   7.604   4.550   7.904
 7746W        W15148  11.977   0.280   8.367
 7747W        W15149   6.628   0.738   8.338
 7748W        W15150  17.818   3.608   9.310
 7749W        W15151   2.686   5.011   9.798
 7750W        W15152  11.507   5.506   8.821
 7751W        W15153  10.035   3.102   7.383
 7752W        W15154  15.893   6.951   0.756
 7753W        W15155  14.899   9.289   2.626
 7754W        W15156   7.087   8.828   7.896
 7755W        W15157  11.024   0.737   1.674
 7756W        W15158   4.163   0.241   1.192
 7757W        W15159  14.914   9.291   9.325
 7758W        W15160  13.951   0.273   0.256
 7759W        W15161   4.661   5.507   2.631
 7760W        W15162   2.728   4.087   2.148
 7761W        W15163  17.853   0.252   7.900
 7762W        W15164   3.200   1.700   9.788
 7763W        W15165   2.685   3.590   2.146
 7764W        W15166  10.488   6.931   9.295
 7765W        W15167  19.302   4.084   1.226
 7766W        W15168  15.376   2.635   2.146
 7767W        W15169   5.170   4.534   2.147
 7768W        W15170  15.394   7.385   2.173
 7769W        W15171  14.434   8.829   0.266
 7770W        W15172  13.926   5.043   0.270
 7771W        W15173  15.405   6.433   9.796
 7772W        W15174  13.452   2.629   2.164
 7773W        W15175   9.033   1.229   1.705
 7774W        W15176   0.246   1.221   1.194
 7775W        W15177  10.528   7.889   0.732
 7776W        W15178   1.239   4.052   8.855
 7777W        W15179   9.043   9.308   8.335
 7778W        W15180   4.664   9.332   1.225
 7779W        W15181   8.086   5.516   9.298
 7780W        W15182   6.126   1.669   8.816
 7781W        W15183   1.256   9.323   1.699
 7782W        W15184  11.998   5.017   9.808
 7783W        W15185   0.252   0.720   8.822
 7784W        W15186   2.700   0.722   0.266
 7785W        W15187  17.340   7.419   8.371
 7786W        W15188   6.590   6.468   9.295
 7787W        W15189  14.905   8.842   0.741
 7788W        W15190  10.996   0.252   0.240
 7789W        W15191  13.460   0.753   8.854
 7790W        W15192  12.955   8.359   9.315
 7791W        W15193  11.502   8.358   9.786
 7792W        W15194  17.808   0.253   2.188
 7793W        W15195   7.115   4.539   9.321
 7794W        W15196  18.334   2.622   8.840
 7795W        W15197  13.915   0.259   0.760
 7796W        W15198   1.238   7.888   2.145
 7797W        W15199  12.974   3.132   0.716
 7798W        W15200  15.396   1.234   7.874
 7799W        W15201   2.688   5.502   7.881
 7800W        W15202  11.957   7.388   7.878
 7801W        W15203  16.832   0.285   0.745
 7802W        W15204  15.403   4.565   0.722
 7803W        W15205  13.940   6.905   2.657
 7804W        W15206  19.773   2.648   0.726
 7805W        W15207  17.832   9.800   9.320
 7806W        W15208   8.054   8.372   2.655
 7807W        W15209  17.847   5.989   8.352
 7808W        W15210  15.414   5.003   1.679
 7809W        W15211   5.146   4.069   9.792
 7810W        W15212  18.315   7.394   9.782
 7811W        W15213  15.872   7.867   0.760
 7812W        W15214   9.037   6.944   0.274
 7813W        W15215   6.596   4.081   0.760
 7814W        W15216  11.958   5.034   8.352
 7815W        W15217  12.475   9.791   9.306
 7816W        W15218  14.404   5.009   9.798
 7817W        W15219  16.346   7.393   9.764
 7818W        W15220  16.866   6.450   7.902
 7819W        W15221   8.095   1.232   0.257
 7820W        W15222  11.003   1.672   7.871
 7821W        W15223  11.957   7.424   1.220
 7822W        W15224   5.648   6.460   9.790
 7823W        W15225   1.236   5.959   0.721
 7824W        W15226   8.081   7.878   8.850
 7825W        W15227   2.219   7.421   8.843
 7826W        W15228  16.842   5.000   1.201
 7827W        W15229   4.679   7.415   1.680
 7828W        W15230   3.199   5.513   2.159
 7829W        W15231  11.977   8.823   1.688
 7830W        W15232   9.045   7.397   1.221
 7831W        W15233  10.018   5.982   1.681
 7832W        W15234   1.244   3.125   1.207
 7833W        W15235  10.537   9.765   0.264
 7834W        W15236   1.246   3.111   7.859
 7835W        W15237   6.592   6.942   8.813
 7836W        W15238  10.028   9.786   2.170
 7837W        W15239   9.068   2.649   9.788
 7838W        W15240  12.461   0.719   0.731
 7839W        W15241   5.625   8.824   1.682
 7840W        W15242  12.957   3.604   1.215
 7841W        W15243  19.799   9.776   9.305
 7842W        W15244  11.502   9.311   9.311
 7843W        W15245   5.169   1.225   1.235
 7844W        W15246   1.713   7.401   1.212
 7845W        W15247   4.161   8.840   9.308
 7846W        W15248   2.723   8.350   0.249
 7847W        W15249  17.332   0.254   0.257
 7848W        W15250   2.198   9.806   0.751
 7849W        W15251  19.293   9.287   7.859
 7850W        W15252   6.617   0.759   0.260
 7851W        W15253   1.711   4.085   0.286
 7852W        W15254   3.686   9.309   0.744
 7853W        W15255  11.012   6.911   7.899
 7854W        W15256   9.561   0.284   2.181
 7855W        W15257   6.128   3.143   0.275
 7856W        W15258  12.485   9.331   9.770
 7857W        W15259  10.534   2.637   9.787
 7858W        W15260   1.253   1.689   0.266
 7859W        W15261  16.348   6.951   2.661
 7860W        W15262  17.835   1.703   2.150
 7861W        W15263  14.393   8.367   7.873
 7862W        W15264   0.737   3.590   7.385
 7863W        W15265  13.905   4.539   8.815
 7864W        W15266  16.840   6.463   0.277
 7865W        W15267  15.887   4.073   8.380
 7866W        W15268   4.181   3.584   2.655
 7867W        W15269   9.531   1.226   1.220
 7868W        W15270  11.491   7.391   9.777
 7869W        W15271   6.130   3.618   0.750
 7870W        W15272  19.312   4.553   0.281
 7871W        W15273  11.008   7.883   8.360
 7872W        W15274   6.107   5.959   2.172
 7873W        W15275  16.368   5.987   9.330
 7874W        W15276  10.520   7.428   1.681
 7875W        W15277  12.940   1.236   1.203
 7876W        W15278  19.314   9.301   8.346
 7877W        W15279  16.372   7.396   2.156
 7878W        W15280   3.700   5.024   9.804
 7879W        W15281  11.503   5.956   0.729
 7880W        W15282   1.739   6.447   1.220
 7881W        W15283  10.034   0.759   0.254
 7882W        W15284   1.263   0.274   9.331
 7883W        W15285   1.744   3.101   7.873
 7884W        W15286   6.631   7.428   8.837
 7885W        W15287  19.302   1.679   1.224
 7886W        W15288  12.445   0.274   0.274
 7887W        W15289   4.147   0.278   8.824
 7888W        W15290  17.347   3.618   0.754
 7889W        W15291  15.402   7.411   0.265
 7890W        W15292   5.642   1.212   8.355
 7891W        W15293  16.361   2.639   1.213
 7892W        W15294  15.901   5.502   9.291
 7893W        W15295   5.171   3.575   0.261
 7894W        W15296  13.913   1.713   1.232
 7895W        W15297  10.980   5.995   1.223
 7896W        W15298   4.639   9.784   1.705
 7897W        W15299   6.114   4.536   2.644
 7898W        W15300  19.303   1.225   1.694
 7899W        W15301  16.347   5.499   9.322
 7900W        W15302  10.529   5.963   8.338
 7901W        W15303   5.161   9.764   0.273
 7902W        W15304   7.104   1.214   8.342
 7903W        W15305  16.374   5.036   1.201
 7904W        W15306   5.133   3.605   8.349
 7905W        W15307  11.985   6.908   0.747
 7906W        W15308   6.615   6.472   1.687
 7907W        W15309   3.686   2.633   1.684
 7908W        W15310   9.513   6.443   1.207
 7909W        W15311  10.502   8.378   9.799
 7910W        W15312   3.183   9.792   8.373
 7911W        W15313   9.042   9.301   7.902
 7912W        W15314   2.716   2.658   8.345
 7913W        W15315   6.615   1.211   7.904
 7914W        W15316   3.673   5.515   7.390
 7915W        W15317  15.878   2.158   9.320
 7916W        W15318  17.344   5.480   1.712
 7917W        W15319   7.080   9.780   8.833
 7918W        W15320  11.501   7.422   8.837
 7919W        W15321  11.486   1.670   9.798
 7920W        W15322  13.461   8.341   0.749
 7921W        W15323  13.945   2.170   1.688
 7922W        W15324   1.746   4.083   8.358
 7923W        W15325   1.223   8.816   8.848
 7924W        W15326   1.741   8.821   2.163
 7925W        W15327  13.447   1.704   1.202
 7926W        W15328   3.204   0.251   1.220
 7927W        W15329   8.553   4.065   1.692
 7928W        W15330  12.962   8.838   7.878
 7929W        W15331   3.182   7.889   0.760
 7930W        W15332   1.255   3.130   2.175
 7931W        W15333  15.413   8.819   2.664
 7932W        W15334  14.394   4.554   1.687
 7933W        W15335   8.089   7.390   0.731
 7934W        W15336  19.801   9.309   9.322
 7935W        W15337   2.202   7.878   1.230
 7936W        W15338   8.564   3.611   0.256
 7937W        W15339  17.350   4.077   1.199
 7938W        W15340  16.863   2.622   0.269
 7939W        W15341  17.346   4.048   9.800
 7940W        W15342  10.508   7.859   8.335
 7941W        W15343   5.624   6.455   1.193
 7942W        W15344  16.847   1.682   9.799
 7943W        W15345  10.016   7.405   1.670
 7944W        W15346  14.401   2.660   8.342
 7945W        W15347   4.183   2.661   7.874
 7946W        W15348   1.744   5.512   1.709
 7947W        W15349  16.344   6.949   0.749
 7948W        W15350  11.490   7.399   0.259
 7949W        W15351   1.237   2.173   8.375
 7950W        W15352   3.686   9.768   1.237
 7951W        W15353  18.331   0.724   9.767
 7952W        W15354  19.785   0.286   1.671
 7953W        W15355   0.754   5.042   8.839
 7954W        W15356   4.175   0.269   0.732
 7955W        W15357   2.213   2.632   1.216
 7956W        W15358   2.711   3.129   7.870
 7957W        W15359   8.071   6.909   1.678
 7958W        W15360   9.517   0.757   0.722
 7959W        W15361  19.305   2.629   8.350
 7960W        W15362  14.430   0.253   1.691
 7961W        W15363  19.769   1.194   9.771
 7962W        W15364  11.010   6.934   0.258
 7963W        W15365  19.759   5.989   8.375
 7964W        W15366   3.660   1.707   8.852
 7965W        W15367  15.375   8.351   7.898
 7966W        W15368  17.344   0.760   8.361
 7967W        W15369   0.255   2.659   2.188
 7968W        W15370   7.607   6.439   8.823
 7969W        W15371   6.632   4.048   9.312
 7970W        W15372   0.761   9.771   7.418
 7971W        W15373   4.185   5.518   0.738
 7972W        W15374  17.336   3.573   9.303
 7973W        W15375   1.729   4.560   8.825
 7974W        W15376  11.464   3.584   8.339
 7975W        W15377   9.026   4.537   8.345
 7976W        W15378   7.114   4.543   8.360
 7977W        W15379  18.797   9.322   8.828
 7978W        W15380  13.417   1.695   2.624
 7979W        W15381   9.524   7.426   0.246
 7980W        W15382   7.566   6.925   0.748
 7981W        W15383  10.511   5.512   1.235
 7982W        W15384   1.734   3.118   0.749
 7983W        W15385  19.269   5.969   0.720
 7984W        W15386  12.945   9.296   7.904
 7985W        W15387  10.040   4.081   1.713
 7986W        W15388  10.993   9.289   0.279
 7987W        W15389   9.038   0.728   1.671
 7988W        W15390  10.525   6.437   2.151
 7989W        W15391   8.052   6.468   1.194
 7990W        W15392  11.999   6.440   1.195
 7991W        W15393   2.686   7.884   1.674
 7992W        W15394   9.042   7.385   8.851
 7993W        W15395   9.044   5.044   8.811
 7994W        W15396  19.781   6.472   7.895
 7995W        W15397  17.809   3.107   9.311
 7996W        W15398   5.616   9.307   1.200
 7997W        W15399   8.083   4.531   7.879
 7998W        W15400   2.221   4.083   9.808
 7999W        W15401   8.582   3.117   8.337
 8000W        W15402  19.770   4.556   2.144
 8001W        W15403  11.490   2.622   7.863
 8002W        W15404  13.445   0.256   2.156
 8003W        W15405  18.817   5.984   2.147
 8004W        W15406   0.262   6.940   1.681
 8005W        W15407   5.129   9.789   8.351
 8006W        W15408   6.588   3.615   7.883
 8007W        W15409  15.859   5.964   1.688
 8008W        W15410   3.661   5.044   1.694
 8009W        W15411   1.714   4.537   2.178
 8010W        W15412   2.706   9.791   1.195
 8011W        W15413  17.329   5.011   9.796
 8012W        W15414  18.297   7.414   2.189
 8013W        W15415   8.050   1.687   8.371
 8014W        W15416   5.618   3.594   8.854
 8015W        W15417   1.262   8.843   1.191
 8016W        W15418  19.780   3.588   9.332
 8017W        W15419   4.184   8.849   2.176
 8018W        W15420   7.578   7.891   8.848
 8019W        W15421  14.881   5.497   8.370
 8020W        W15422  14.889   7.868   2.180
 8021W        W15423  10.498   6.943   2.619
 8022W        W15424  11.969   3.141   8.818
 8023W        W15425   9.040   2.182   1.680
 8024W        W15426   1.228   7.393   8.828
 8025W        W15427  14.895   6.950   2.143
 8026W        W15428  15.900   5.480   8.372
 8027W        W15429  16.849   6.921   9.777
 8028W        W15430  14.399   7.404   1.710
 8029W        W15431   1.744   0.276   2.627
 8030W        W15432  15.860   6.933   0.248
 8031W        W15433  11.485   3.112   0.270
 8032W        W15434   0.247   0.283   9.324
 8033W        W15435   3.685   5.022   1.192
 8034W        W15436   7.590   9.328   1.669
 8035W        W15437  10.028   1.697   8.353
 8036W        W15438  10.490   4.542   1.698
 8037W        W15439  18.796   2.157   0.720
 8038W        W15440   3.208   4.072   9.296
 8039W        W15441   9.049   8.855   1.205
 8040W        W15442   2.196   1.693   8.376
 8041W        W15443  19.272   2.180   1.194
 8042W        W15444  11.012   6.935   2.172
 8043W        W15445  10.030   7.392   9.778
 8044W        W15446   3.672   5.974   0.756
 8045W        W15447  15.895   8.812   1.702
 8046W        W15448   7.608   5.522   8.833
 8047W        W15449   6.103   7.390   9.805
 8048W        W15450   6.594   1.213   8.821
 8049W        W15451   1.739   5.974   0.253
 8050W        W15452   6.140   7.404   7.869
 8051W        W15453  13.903   6.948   8.339
 8052W        W15454  18.294   8.817   2.174
 8053W        W15455  15.366   0.717   2.167
 8054W        W15456   5.651   4.065   8.845
 8055W        W15457  12.973   3.580   0.267
 8056W        W15458   4.179   7.396   0.242
 8057W        W15459   3.198   1.229   1.690
 8058W        W15460  18.812   9.298   1.196
 8059W        W15461  13.425   4.077   0.720
 8060W        W15462   8.059   5.986   8.826
 8061W        W15463   0.277   6.439   0.753
 8062W        W15464   6.101   8.349   1.234
 8063W        W15465   3.215   2.159   0.726
 8064W        W15466   3.184   9.775   9.289
 8065W        W15467   9.520   7.891   9.765
 8066W        W15468   7.589   0.741   1.692
 8067W        W15469   6.617   6.912   2.143
 8068W        W15470  13.463   3.126   7.878
 8069W        W15471  14.412   7.861   1.684
 8070W        W15472   9.519   3.113   7.883
 8071W        W15473   5.652   9.778   1.710
 8072W        W15474  12.954   3.142   9.310
 8073W        W15475  11.471   0.737   7.878
 8074W        W15476   0.281   6.937   9.321
 8075W        W15477  18.824   8.819   1.672
 8076W        W15478  18.806   4.548   8.367
 8077W        W15479  18.806   4.081   9.800
 8078W        W15480   8.079   1.211   0.716
 8079W        W15481   7.599   9.798   1.674
 8080W        W15482   0.265   4.080   0.731
 8081W        W15483  11.974   9.792   9.322
 8082W        W15484  10.992   9.795   7.879
 8083W        W15485   2.693   0.739   1.705
 8084W        W15486  11.958   0.280   0.264
 8085W        W15487   9.026   3.577   1.699
 8086W        W15488   5.144   3.600   7.870
 8087W        W15489   4.166   8.842   8.825
 8088W        W15490   4.675   5.035   2.158
 8089W        W15491  15.398   8.838   8.354
 8090W        W15492   6.137   1.217   8.364
 8091W        W15493   0.285   0.282   8.810
 8092W        W15494  11.962   7.897   9.302
 8093W        W15495   2.237   4.068   9.314
 8094W        W15496  18.296   2.633   8.343
 8095W        W15497  11.992   5.502   9.329
 8096W        W15498   5.631   1.705   2.643
 8097W        W15499   5.647   7.864   0.243
 8098W        W15500  13.930   9.774   9.332
 8099W        W15501   6.618   0.280   0.738
 8100W        W15502   8.581   2.631   0.739
 8101W        W15503  14.435   5.002   8.355
 8102W        W15504  14.903   7.886   7.398
 8103W        W15505   7.089   9.796   0.731
 8104W        W15506   5.614   7.417   1.191
 8105W        W15507  10.496   3.580   0.285
 8106W        W15508  11.473   0.272   2.183
 8107W        W15509  15.859   9.291   1.231
 8108W        W15510   0.272   5.968   1.679
 8109W        W15511  14.423   9.786   1.712
 8110W        W15512   1.268   1.217   9.304
 8111W        W15513   4.170   1.218   1.669
 8112W        W15514  19.783   0.282   7.864
 8113W        W15515  12.938   2.634   1.219
 8114W        W15516  14.401   4.556   9.788
 8115W        W15517   4.182   1.673   8.338
 8116W        W15518  18.338   1.224   9.807
 8117W        W15519  12.474   9.788   1.205
 8118W        W15520   0.771   7.390   8.357
 8119W        W15521  19.273   9.799   8.354
 8120W        W15522  11.961   0.270   7.901
 8121W        W15523  11.002   5.043   8.363
 8122W        W15524  14.406   2.648   1.713
 8123W        W15525   4.661   5.033   1.200
 8124W        W15526  11.500   6.429   0.741
 8125W        W15527  18.333   0.755   0.279
 8126W        W15528  18.327   4.555   2.179
 8127W        W15529  12.932   3.109   8.847
 8128W        W15530   8.573   1.219   2.168
 8129W        W15531   0.265   6.468   7.904
 8130W        W15532  14.402   9.287   2.159
 8131W        W15533   1.239   1.228   7.866
 8132W        W15534   3.206   3.575   0.737
 8133W        W15535  14.402   9.795   8.825
 8134W        W15536   9.537   2.179   2.182
 8135W        W15537  14.398   5.006   0.270
 8136W        W15538  14.911   1.705   9.807
 8137W        W15539  10.525   5.034   1.703
 8138W        W15540   9.037   4.068   8.354
 8139W        W15541  15.391   9.308   9.331
 8140W        W15542   1.738   3.127   1.680
 8141W        W15543  15.372   5.998   1.238
 8142W        W15544   3.668   9.317   0.263
 8143W        W15545  13.944   0.280   9.287
 8144W        W15546  13.914   6.906   1.192
 8145W        W15547   7.579   6.920   8.372
 8146W        W15548   5.639   1.223   8.830
 8147W        W15549  18.815   0.755   0.274
 8148W        W15550   5.615   0.282   8.366
 8149W        W15551  15.900   9.766   8.347
 8150W        W15552  11.961   4.554   8.829
 8151W        W15553   5.620   5.978   8.855
 8152W        W15554   6.589   9.316   8.814
 8153W        W15555   2.702   7.897   7.898
 8154W        W15556  11.994   1.202   8.334
 8155W        W15557  11.989   5.002   1.710
 8156W        W15558   1.233   1.232   8.852
 8157W        W15559   7.078   6.913   2.161
 8158W        W15560   7.121   8.849   9.809
 8159W        W15561  10.509   4.546   2.152
 8160W        W15562   1.222   8.822   9.768
 8161W        W15563  10.998   9.329   1.689
 8162W        W15564  13.422   8.343   0.254
 8163W        W15565  15.874   5.019   1.219
 8164W        W15566  11.994   8.352   7.869
 8165W        W15567   8.544   5.011   0.258
 8166W        W15568   7.569   4.094   8.373
 8167W        W15569  11.485   5.996   0.272
 8168W        W15570   3.678   9.795   1.710
 8169W        W15571  18.793   7.408   9.790
 8170W        W15572  16.369   6.929   7.861
 8171W        W15573  13.456   1.686   8.844
 8172W        W15574   3.676   2.176   0.738
 8173W        W15575   7.594   1.693   8.810
 8174W        W15576  19.300   9.311   1.206
 8175W        W15577  18.786   6.467   2.167
 8176W        W15578  13.925   9.786   9.799
 8177W        W15579  17.848   5.478   8.380
 8178W        W15580  16.367   8.821   0.761
 8179W        W15581   2.212   3.584   8.348
 8180W        W15582   6.104   4.568   2.169
 8181W        W15583  10.017   0.259   7.872
 8182W        W15584  16.843   5.002   8.832
 8183W        W15585   9.532   5.986   9.771
 8184W        W15586   8.057   2.172   1.693
 8185W        W15587  16.348   4.092   2.188
 8186W        W15588   8.066   9.296   9.805
 8187W        W15589   5.654   9.784   9.796
 8188W        W15590  15.388   1.712   9.765
 8189W        W15591  17.849   5.992   1.672
 8190W        W15592  15.412   6.917   0.256
 8191W        W15593  14.410   6.454   0.281
 8192W        W15594  14.426   0.740   2.184
 8193W        W15595   8.547   6.919   7.859
 8194W        W15596  15.892   0.248   7.870
 8195W        W15597  18.303   4.552   8.840
 8196W        W15598  15.371   5.982   0.750
 8197W        W15599   7.606   2.190   1.680
 8198W        W15600   9.034   6.947   9.312
 8199W        W15601   5.152   2.156   0.729
 8200W        W15602   7.599   1.222   2.164
 8201W        W15603   3.198   7.888   2.660
 8202W        W15604  15.868   2.158   8.811
 8203W        W15605   5.166   4.569   1.701
 8204W        W15606  11.992   0.266   0.715
 8205W        W15607   8.076   0.759   7.862
 8206W        W15608  16.349   7.399   8.844
 8207W        W15609  12.932   1.196   9.786
 8208W        W15610   3.699   1.217   0.273
 8209W        W15611   8.070   1.680   9.775
 8210W        W15612  10.494   2.182   9.766
 8211W        W15613  10.496   9.768   9.298
 8212W        W15614  16.875   8.340   8.831
 8213W        W15615   7.607   8.813   8.334
 8214W        W15616   0.773   0.255   1.230
 8215W        W15617  11.977   6.926   8.851
 8216W        W15618   5.168   2.639   9.287
 8217W        W15619   2.229   0.243   0.284
 8218W        W15620  13.923   1.709   9.315
 8219W        W15621  17.342   9.291   8.849
 8220W        W15622   2.712   4.064   8.848
 8221W        W15623  17.323   6.950   0.750
 8222W        W15624  11.978   0.239   8.823
 8223W        W15625   6.604   5.507   7.403
 8224W        W15626   0.284   3.097   2.174
 8225W        W15627  16.378   9.808   2.149
 8226W        W15628  19.773   3.122   1.215
 8227W        W15629  18.813   1.683   7.862
 8228W        W15630  19.274   7.897   1.231
 8229W        W15631   8.083   4.550   1.679
 8230W        W15632   1.251   0.732   8.351
 8231W        W15633   6.633   5.476   9.768
 8232W        W15634   6.593   1.677   1.231
 8233W        W15635   6.634   5.487   1.208
 8234W        W15636   4.148   8.378   1.215
 8235W        W15637  12.948   2.145   8.813
 8236W        W15638   4.181   8.355   9.792
 8237W        W15639  18.301   6.928   8.823
 8238W        W15640   9.027   3.136   1.231
 8239W        W15641   2.203   2.157   2.188
 8240W        W15642   8.073   9.287   8.380
 8241W        W15643  13.448   7.896   1.194
 8242W        W15644   9.038   3.602   8.349
 8243W        W15645  14.886   1.197   9.806
 8244W        W15646   2.237   0.755   1.681
 8245W        W15647  11.472   3.572   0.729
 8246W        W15648   9.512   9.323   0.243
 8247W        W15649   1.711   6.940   7.859
 8248W        W15650   8.563   7.399   8.381
 8249W        W15651  11.471   2.638   1.200
 8250W        W15652   1.741   0.738   9.329
 8251W        W15653  18.341   8.376   0.733
 8252W        W15654   0.290   1.699   8.819
 8253W        W15655   7.572   3.129   9.774
 8254W        W15656  15.855   3.577   9.789
 8255W        W15657   1.228   2.168   2.157
 8256W        W15658   3.195   7.391   8.372
 8257W        W15659  10.048   3.585   1.194
 8258W        W15660   2.721   3.607   9.295
 8259W        W15661   0.273   3.103   8.363
 8260W        W15662   4.655   5.515   9.291
 8261W        W15663  12.441   0.269   0.737
 8262W        W15664  19.776   7.890   7.866
 8263W        W15665  14.895   2.663   1.692
 8264W        W15666   3.685   8.813   0.730
 8265W        W15667  13.913   7.423   8.854
 8266W        W15668  19.312   1.194   8.377
 8267W        W15669   4.680   0.263   8.355
 8268W        W15670   4.665   6.000   0.282
 8269W        W15671  18.303   1.679   8.832
 8270W        W15672   9.514   0.239   1.209
 8271W        W15673  14.418   7.903   1.214
 8272W        W15674  14.911   5.019   9.316
 8273W        W15675  15.872   1.676   1.669
 8274W        W15676   0.273   6.448   8.850
 8275W        W15677  12.941   1.703   1.672
 8276W        W15678   6.115   1.203   0.751
 8277W        W15679  10.494   6.908   0.262
 8278W        W15680  19.268   2.187   9.772
 8279W        W15681  16.388   6.951   9.288
 8280W        W15682   4.661   4.083   9.767
 8281W        W15683  14.411   6.457   8.342
 8282W        W15684   6.141   6.460   9.809
 8283W        W15685  13.444   4.064   8.812
 8284W        W15686  11.022   2.188   9.790
 8285W        W15687  15.377   2.643   9.307
 8286W        W15688  19.757   6.911   9.797
 8287W        W15689   7.088   3.125   0.743
 8288W        W15690  14.399   7.384   0.267
 8289W        W15691  14.392   2.629   8.855
 8290W        W15692   2.707   9.780   1.679
 8291W        W15693  12.449   4.549   2.147
 8292W        W15694   4.164   1.201   8.854
 8293W        W15695   3.686   5.479   0.242
 8294W        W15696  15.857   0.281   9.300
 8295W        W15697  12.942   5.966   8.352
 8296W        W15698  16.836   4.094   8.370
 8297W        W15699  10.994   9.287   7.901
 8298W        W15700  15.881   2.187   1.686
 8299W        W15701   4.156   9.289   9.323
 8300W        W15702   9.517   0.718   9.308
 8301W        W15703   7.093   0.250   7.862
 8302W        W15704   3.175   6.923   1.222
 8303W        W15705   5.654   0.248   8.850
 8304W        W15706   6.130   8.810   7.863
 8305W        W15707  12.488   1.683   8.370
 8306W        W15708   8.558   2.624   9.794
 8307W        W15709  12.975   3.117   1.704
 8308W        W15710  15.886   4.553   8.342
 8309W        W15711  14.392   2.165   8.826
 8310W        W15712  12.973   0.266   9.319
 8311W        W15713  16.852   5.035   9.792
 8312W        W15714  15.855   1.702   2.162
 8313W        W15715  17.324   4.058   7.861
 8314W        W15716  18.323   9.762   8.810
 8315W        W15717  11.474   0.250   0.759
 8316W        W15718  14.920   8.822   9.763
 8317W        W15719   4.670   6.473   1.225
 8318W        W15720  17.826   0.761   9.309
 8319W        W15721   8.086   9.297   1.700
 8320W        W15722  12.975   7.876   9.290
 8321W        W15723   6.608   4.078   0.256
 8322W        W15724  19.784   0.240   2.145
 8323W        W15725   3.208   5.013   1.687
 8324W        W15726   0.255   3.113   9.778
 8325W        W15727  10.037   3.130   8.368
 8326W        W15728  13.913   4.527   9.309
 8327W        W15729  18.818   8.338   9.765
 8328W        W15730   2.216   5.022   1.707
 8329W        W15731  13.416   5.976   2.636
 8330W        W15732   5.627   6.441   2.160
 8331W        W15733  15.863   2.158   7.402
 8332W        W15734  11.020   1.686   9.308
 8333W        W15735  11.951   8.380   1.216
 8334W        W15736  14.892   3.615   1.212
 8335W        W15737  19.801   0.261   9.307
 8336W        W15738   4.683   5.011   8.366
 8337W        W15739   3.702   1.203   9.319
 8338W        W15740  12.964   8.343   7.879
 8339W        W15741  10.986   5.515   2.147
 8340W        W15742   9.037   6.429   1.210
 8341W        W15743  17.351   7.397   9.307
 8342W        W15744   9.515   2.170   1.713
 8343W        W15745   6.631   8.340   1.669
 8344W        W15746   8.070   5.005   1.222
 8345W        W15747  11.495   3.131   2.155
 8346W        W15748   9.061   0.714   0.256
 8347W        W15749  16.873   2.174   1.214
 8348W        W15750  11.995   9.309   0.253
 8349W        W15751  14.438   6.950   1.704
 8350W        W15752  10.013   5.029   0.726
 8351W        W15753   1.722   2.625   7.871
 8352W        W15754  16.869   8.845   1.238
 8353W        W15755  13.419   0.721   9.288
 8354W        W15756   9.515   3.609   8.855
 8355W        W15757  14.917   6.429   7.885
 8356W        W15758  14.908   5.506   1.238
 8357W        W15759  16.859   5.490   8.840
 8358W        W15760  14.888   2.174   8.367
 8359W        W15761  11.014   4.082   0.249
 8360W        W15762   6.634   0.755   9.772
 8361W        W15763   2.229   6.461   9.806
 8362W        W15764   3.665   0.280   2.156
 8363W        W15765   6.131   0.272   8.369
 8364W        W15766   6.114   0.749   8.827
 8365W        W15767   7.587   4.560   2.188
 8366W        W15768  17.821   3.572   8.811
 8367W        W15769   9.040   3.611   8.850
 8368W        W15770  16.361   8.834   9.301
 8369W        W15771   4.674   3.140   2.178
 8370W        W15772  16.855   0.736   9.770
 8371W        W15773   2.240   1.695   1.701
 8372W        W15774  12.966   5.956   1.688
 8373W        W15775  18.311   1.683   1.193
 8374W        W15776   3.178   2.648   7.870
 8375W        W15777   7.589   4.558   1.707
 8376W        W15778   8.050   6.949   8.819
 8377W        W15779   2.217   3.592   1.220
 8378W        W15780   6.129   7.899   8.820
 8379W        W15781   3.697   8.837   8.835
 8380W        W15782   6.136   2.620   9.333
 8381W        W15783  17.358   4.065   8.827
 8382W        W15784   2.225   0.762   2.178
 8383W        W15785   0.274   0.239   2.146
 8384W        W15786   5.148   8.816   1.201
 8385W        W15787  14.881   8.372   9.773
 8386W        W15788   4.181   4.068   9.773
 8387W        W15789   2.696   0.752   7.428
 8388W        W15790  15.870   1.676   8.856
 8389W        W15791  11.477   9.803   9.768
 8390W        W15792  11.467   1.198   2.640
 8391W        W15793  18.311   1.683   9.304
 8392W        W15794  11.010   9.807   0.739
 8393W        W15795   9.525   6.442   1.668
 8394W        W15796  15.389   1.201   2.648
 8395W        W15797  19.276   5.507   0.258
 8396W        W15798  17.841   3.113   8.371
 8397W        W15799  17.835   1.674   0.745
 8398W        W15800  13.443   7.858   0.251
 8399W        W15801   0.276   6.437   1.667
 8400W        W15802   1.225   5.515   1.688
 8401W        W15803   9.537   7.392   8.837
 8402W        W15804  12.932   3.117   1.207
 8403W        W15805  10.048   8.360   9.292
 8404W        W15806  19.764   4.561   0.722
 8405W        W15807  17.351   1.202   0.753
 8406W        W15808  10.528   5.505   7.873
 8407W        W15809   5.612   2.147   2.151
 8408W        W15810  12.469   9.773   0.254
 8409W        W15811   4.676   8.348   1.208
 8410W        W15812  14.433   5.515   9.801
 8411W        W15813  17.325   5.982   8.365
 8412W        W15814  14.888   0.252   8.822
 8413W        W15815   2.724   2.176   1.216
 8414W        W15816  11.499   6.919   2.185
 8415W        W15817  12.480   5.517   9.295
 8416W        W15818   6.103   0.251   2.640
 8417W        W15819  17.845   4.090   1.682
 8418W        W15820   7.099   0.730   8.379
 8419W        W15821   0.737   5.504   7.902
 8420W        W15822  19.292   4.539   1.670
 8421W        W15823  16.343   3.098   0.246
 8422W        W15824   3.174   5.002   2.163
 8423W        W15825   4.676   0.755   0.263
 8424W        W15826   7.080   8.377   1.210
 8425W        W15827  10.027   6.468   1.201
 8426W        W15828   0.749   9.293   8.366
 8427W        W15829  12.463   6.934   0.716
 8428W        W15830   8.580   1.684   1.236
 8429W        W15831   1.236   0.744   2.145
 8430W        W15832   5.156   9.326   2.170
 8431W        W15833   9.557   2.649   1.698
 8432W        W15834   0.735   5.954   8.835
 8433W        W15835   8.546   4.570   1.710
 8434W        W15836  18.327   8.834   0.274
 8435W        W15837  14.405   8.849   2.187
 8436W        W15838   1.754   9.800   1.197
 8437W        W15839  18.318   2.646   9.772
 8438W        W15840   9.051   4.541   0.730
 8439W        W15841  12.456   5.032   9.765
 8440W        W15842   8.063   3.128   0.717
 8441W        W15843  16.345   6.930   2.189
 8442W        W15844   4.672   5.505   8.813
 8443W        W15845   8.581   6.461   8.380
 8444W        W15846  11.001   5.521   9.765
 8445W        W15847   0.763   3.120   7.870
 8446W        W15848   9.527   5.505   2.169
 8447W        W15849  13.928   7.877   8.841
 8448W        W15850  11.013   4.065   9.775
 8449W        W15851  14.395   5.034   1.221
 8450W        W15852  16.831   0.250   8.852
 8451W        W15853   6.132   6.946   2.174
 8452W        W15854   1.226   0.761   9.313
 8453W        W15855  14.431   5.975   7.404
 8454W        W15856   1.713   2.169   8.363
 8455W        W15857  16.366   9.300   0.729
 8456W        W15858  13.936   6.951   0.759
 8457W        W15859  13.927   5.505   0.760
 8458W        W15860  10.987   9.313   9.774
 8459W        W15861  18.812   7.863   9.792
 8460W        W15862  10.026   8.340   7.892
 8461W        W15863   3.688   5.520   2.147
 8462W        W15864  13.446   9.292   0.758
 8463W        W15865   1.264   3.138   3.116
 8464W        W15866   1.728   1.676   1.708
 8465W        W15867  13.904   1.712   0.247
 8466W        W15868  10.496   5.035   0.279
 8467W        W15869   4.195   6.464   7.869
 8468W        W15870  14.392   8.830   8.354
 8469W        W15871   2.217   8.843   1.218
 8470W        W15872  15.870   2.186   0.736
 8471W        W15873  14.429   7.904   0.241
 8472W        W15874  14.417   7.417   1.227
 8473W        W15875  18.295   4.066   2.163
 8474W        W15876  14.886   1.679   8.366
 8475W        W15877   6.134   5.986   0.720
 8476W        W15878  10.043   0.256   1.191
 8477W        W15879   7.591   9.289   8.852
 8478W        W15880  19.778   9.780   1.202
 8479W        W15881  11.464   2.658   0.242
 8480W        W15882  16.352   0.280   7.866
 8481W        W15883  15.397   5.521   0.274
 8482W        W15884  14.917   3.604   9.796
 8483W        W15885   2.706   9.764   2.144
 8484W        W15886   7.578   3.119   8.372
 8485W        W15887   4.647   9.795   8.835
 8486W        W15888  12.454   2.624   9.310
 8487W        W15889  14.892   2.632   9.311
 8488W        W15890  13.918   1.236   1.714
 8489W        W15891  13.903   6.949   2.189
 8490W        W15892   7.609   8.843   9.320
 8491W        W15893  14.894   1.197   8.822
 8492W        W15894  13.944   9.301   7.868
 8493W        W15895   2.723   4.558   9.803
 8494W        W15896   8.583   2.173   2.189
 8495W        W15897   4.151   5.970   0.285
 8496W        W15898  17.840   5.502   8.854
 8497W        W15899   3.174   2.653   0.749
 8498W        W15900   5.617   2.155   0.750
 8499W        W15901   3.197   2.174   2.154
 8500W        W15902  16.363   0.750   9.299
 8501W        W15903   5.158   5.038   9.315
 8502W        W15904   8.561   5.963   1.704
 8503W        W15905  13.443   7.904   8.338
 8504W        W15906  15.862   7.395   0.247
 8505W        W15907   0.775   1.213   9.287
 8506W        W15908   0.733   2.162   7.880
 8507W        W15909  11.959   5.956   7.867
 8508W        W15910  10.525   0.717   7.878
 8509W        W15911  17.816   7.388   9.302
 8510W        W15912  12.446   7.425   7.861
 8511W        W15913   5.627   6.430   0.726
 8512W        W15914   3.667   5.991   9.770
 8513W        W15915   2.707   0.246   8.857
 8514W        W15916  15.411   1.229   1.689
 8515W        W15917  19.284   4.089   7.876
 8516W        W15918   5.656   8.853   7.859
 8517W        W15919   8.540   8.368   1.672
 8518W        W15920  10.048   9.807   0.258
 8519W        W15921  15.875   1.227   1.668
 8520W        W15922  19.306   4.561   9.774
 8521W        W15923  18.818   1.674   9.318
 8522W        W15924   7.104   6.923   8.819
 8523W        W15925   2.231   2.163   9.306
 8524W        W15926  10.025   5.483   8.373
 8525W        W15927  14.393   6.922   9.765
 8526W        W15928   4.189   2.634   1.711
 8527W        W15929   2.223   8.843   0.249
 8528W        W15930   5.150   1.209   2.186
 8529W        W15931   4.655   2.627   1.679
 8530W        W15932   2.204   3.116   9.783
 8531W        W15933   2.702   8.842   8.853
 8532W        W15934  15.376   0.725   0.747
 8533W        W15935  17.818   9.777   9.802
 8534W        W15936   2.211   9.293   8.371
 8535W        W15937   3.218   9.769   7.885
 8536W        W15938   4.651   6.909   8.348
 8537W        W15939  10.020   0.729   1.203
 8538W        W15940   4.168   3.603   9.295
 8539W        W15941   8.089   5.980   1.712
 8540W        W15942  10.037   9.791   8.840
 8541W        W15943   4.188   0.756   0.277
 8542W        W15944   6.613   9.326   1.237
 8543W        W15945  19.781   0.760   7.862
 8544W        W15946  15.375   9.298   1.711
 8545W        W15947   5.155   9.803   7.872
 8546W        W15948  11.995   6.453   2.167
 8547W        W15949   3.185   3.593   1.691
 8548W        W15950  19.770   2.146   2.173
 8549W        W15951  11.482   7.414   8.360
 8550W        W15952  11.486   1.691   0.272
 8551W        W15953   1.250   3.577   9.765
 8552W        W15954   0.270   3.598   1.191
 8553W        W15955   5.619   0.244   1.705
 8554W        W15956  19.281   7.857   8.853
 8555W        W15957   1.720   4.070   9.784
 8556W        W15958   0.768   6.439   7.863
 8557W        W15959   4.194   2.665   0.723
 8558W        W15960  17.319   0.727   0.714
 8559W        W15961   9.061   8.345   1.693
 8560W        W15962  10.001   5.516   9.307
 8561W        W15963  16.379   4.531   0.269
 8562W        W15964  11.019   9.769   8.339
 8563W        W15965   4.162   9.312   7.900
 8564W        W15966  11.979   5.484   1.192
 8565W        W15967   2.696   1.230   9.766
 8566W        W15968   4.659   4.051   0.735
 8567W        W15969  19.314   5.987   9.773
 8568W        W15970  19.311   9.326   2.169
 8569W        W15971  19.780   7.890   8.848
 8570W        W15972   1.234   6.444   2.172
 8571W        W15973  19.778   9.763   8.833
 8572W        W15974  17.344   4.568   9.771
 8573W        W15975  10.046   0.274   2.185
 8574W        W15976  12.933   5.508   8.339
 8575W        W15977  18.337   9.307   2.663
 8576W        W15978  16.872   5.960   1.684
 8577W        W15979   1.255   4.533   8.345
 8578W        W15980  16.356   5.484   2.182
 8579W        W15981  10.997   5.041   1.206
 8580W        W15982  13.925   8.826   9.781
 8581W        W15983   2.719   5.036   9.316
 8582W        W15984   6.124   6.920   0.719
 8583W        W15985   6.099   9.766   1.683
 8584W        W15986   8.548   4.065   9.775
 8585W        W15987  10.018   1.222   8.812
 8586W        W15988   7.117   7.889   1.200
 8587W        W15989  14.393   9.312   0.279
 8588W        W15990   3.182   9.788   1.678
 8589W        W15991   4.658   8.847   1.682
 8590W        W15992   1.236   5.953   8.832
 8591W        W15993   4.155   9.767   0.734
 8592W        W15994   5.621   9.291   3.107
 8593W        W15995  13.451   2.639   9.300
 8594W        W15996  10.493   3.112   0.742
 8595W        W15997   2.210   9.308   2.163
 8596W        W15998  14.430   3.124   8.371
 8597W        W15999   7.570   1.230   0.248
 8598W        W16000   8.578   0.239   9.773
 8599W        W16001   7.607   1.216   1.204
 8600W        W16002   5.638   1.670   7.404
 8601W        W16003  11.963   0.723   1.685
 8602W        W16004   4.643   9.322   8.356
 8603W        W16005  16.363   5.503   9.762
 8604W        W16006   6.134   3.596   1.210
 8605W        W16007  17.820   9.783   2.183
 8606W        W16008  19.314   0.728   1.696
 8607W        W16009  10.006   5.983   8.841
 8608W        W16010  10.999   2.631   1.230
 8609W        W16011  11.022   3.113   1.228
 8610W        W16012  18.812   2.158   9.773
 8611W        W16013  16.382   7.880   9.794
 8612W        W16014   1.248   8.355   1.692
 8613W        W16015   6.586   6.934   1.191
 8614W        W16016  12.478   8.350   0.745
 8615W        W16017   1.737   4.058   9.294
 8616W        W16018  18.820   3.574   0.754
 8617W        W16019  14.399   3.596   8.335
 8618W        W16020   2.717   6.442   7.886
 8619W        W16021   5.145   5.967   1.692
 8620W        W16022   7.120   5.970   2.187
 8621W        W16023  17.824   1.673   8.375
 8622W        W16024   7.573   1.230   1.683
 8623W        W16025   5.170   2.162   1.201
 8624W        W16026   1.251   6.449   0.257
 8625W        W16027   8.556   0.268   7.858
 8626W        W16028   7.117   0.269   0.247
 8627W        W16029  16.846   6.917   1.686
 8628W        W16030   1.224   5.481   9.327
 8629W        W16031  14.402   8.851   9.292
 8630W        W16032  16.860   4.552   9.325
 8631W        W16033  12.447   8.352   1.237
 8632W        W16034  14.423   6.472   0.715
 8633W        W16035  11.016   3.115   8.360
 8634W        W16036   3.662   6.450   9.766
 8635W        W16037  17.827   2.155   8.366
 8636W        W16038   4.675   0.239   1.219
 8637W        W16039  19.758   2.624   7.881
 8638W        W16040   5.640   3.594   7.904
 8639W        W16041   4.645   5.523   0.276
 8640W        W16042   8.541   5.978   2.163
 8641W        W16043   0.273   4.554   7.858
 8642W        W16044   8.083   6.910   7.869
 8643W        W16045   1.724   3.584   2.144
 8644W        W16046  17.332   7.882   8.841
 8645W        W16047  17.838   1.700   9.796
 8646W        W16048  14.880   0.724   1.693
 8647W        W16049  18.824   7.873   7.902
 8648W        W16050  10.528   3.116   0.247
 8649W        W16051  15.882   6.456   0.761
 8650W        W16052   0.276   2.651   9.793
 8651W        W16053   3.670   3.121   1.226
 8652W        W16054   9.529   7.870   8.357
 8653W        W16055  11.989   1.195   9.311
 8654W        W16056  11.506   1.700   2.182
 8655W        W16057  11.981   1.193   9.788
 8656W        W16058  15.857   3.104   0.723
 8657W        W16059   7.076   4.551   2.151
 8658W        W16060   8.067   2.180   7.880
 8659W        W16061  18.797   9.325   7.429
 8660W        W16062  11.968   6.467   9.788
 8661W        W16063   7.117   9.789   2.643
 8662W        W16064  16.360   5.024   8.810
 8663W        W16065   1.727   1.219   7.890
 8664W        W16066   4.192   6.466   9.310
 8665W        W16067   3.172   6.443   8.350
 8666W        W16068   9.543   7.416   9.794
 8667W        W16069   8.547   1.223   0.260
 8668W        W16070   7.116   4.056   0.741
 8669W        W16071   2.725   5.015   0.253
 8670W        W16072   5.122   6.431   8.850
 8671W        W16073  16.389   6.472   9.318
 8672W        W16074  12.937   4.073   7.884
 8673W        W16075  18.304   4.550   8.348
 8674W        W16076  18.300   7.883   1.677
 8675W        W16077  11.956   6.947   0.261
 8676W        W16078  19.765   7.875   2.183
 8677W        W16079   3.665   5.030   7.886
 8678W        W16080  14.404   8.822   9.800
 8679W        W16081  19.290   2.649   0.284
 8680W        W16082  10.990   0.248   0.743
 8681W        W16083   9.068   6.938   0.738
 8682W        W16084  13.911   2.637   0.751
 8683W        W16085   6.141   6.466   8.343
 8684W        W16086   2.683   5.970   1.216
 8685W        W16087  11.984   0.737   1.215
 8686W        W16088  15.398   3.134   9.305
 8687W        W16089   4.676   8.855   2.157
 8688W        W16090   3.675   9.772   7.896
 8689W        W16091  14.898   9.809   7.897
 8690W        W16092  10.520   4.547   0.755
 8691W        W16093  19.285   3.115   9.301
 8692W        W16094  16.855   1.672   1.215
 8693W        W16095  11.961   1.216   0.719
 8694W        W16096   7.582   6.440   2.620
 8695W        W16097  19.303   3.112   0.243
 8696W        W16098  11.990   6.927   1.230
 8697W        W16099   8.570   0.717   8.338
 8698W        W16100  16.835   6.924   8.380
 8699W        W16101   8.062   2.660   8.855
 8700W        W16102  12.955   0.285   9.764
 8701W        W16103   0.732   5.982   1.681
 8702W        W16104  13.920   5.517   0.249
 8703W        W16105  13.908   8.819   9.322
 8704W        W16106  12.443   6.934   1.213
 8705W        W16107  18.792   3.602   9.769
 8706W        W16108  14.908   7.423   9.785
 8707W        W16109  16.843   0.743   7.895
 8708W        W16110   0.280   4.075   9.800
 8709W        W16111  10.043   9.286   9.314
 8710W        W16112  13.911   6.432   1.209
 8711W        W16113  12.965   9.311   9.325
 8712W        W16114   6.598   3.602   8.848
 8713W        W16115   1.233   6.466   1.195
 8714W        W16116   1.230   0.261   9.769
 8715W        W16117   6.585   4.541   2.145
 8716W        W16118   5.168   6.439   8.347
 8717W        W16119   4.645   6.439   2.178
 8718W        W16120   7.098   1.674   8.338
 8719W        W16121  12.475   5.492   1.698
 8720W        W16122  10.532   9.302   7.895
 8721W        W16123  12.478   2.155   1.702
 8722W        W16124   3.706   5.983   0.285
 8723W        W16125  18.326   6.951   0.747
 8724W        W16126   7.104   8.839   0.254
 8725W        W16127  13.457   8.341   8.374
 8726W        W16128   7.582   9.314   8.380
 8727W        W16129   4.182   7.425   0.752
 8728W        W16130   4.665   3.100   7.892
 8729W        W16131   9.028   0.258   2.144
 8730W        W16132  16.382   2.179   1.702
 8731W        W16133  10.999   4.091   8.337
 8732W        W16134  11.477   3.120   0.754
 8733W        W16135  12.941   6.446   1.224
 8734W        W16136  16.870   7.412   7.883
 8735W        W16137  12.963   8.338   1.230
 8736W        W16138   5.169   3.610   2.155
 8737W        W16139  13.445   9.311   7.862
 8738W        W16140   8.085   3.595   1.714
 8739W        W16141  13.933   6.931   8.815
 8740W        W16142  16.849   1.217   8.846
 8741W        W16143  12.482   9.782   8.368
 8742W        W16144  19.780   2.154   0.277
 8743W        W16145  16.372   2.640   1.678
 8744W        W16146   6.614   7.425   9.794
 8745W        W16147   9.532   8.341   9.290
 8746W        W16148   5.616   4.552   8.839
 8747W        W16149  17.341   0.746   1.197
 8748W        W16150  14.916   1.691   2.155
 8749W        W16151   6.120   2.155   8.352
 8750W        W16152   8.068   0.254   2.172
 8751W        W16153  14.435   5.996   9.314
 8752W        W16154   3.172   5.986   8.824
 8753W        W16155   4.161   4.571   9.783
 8754W        W16156  14.924   2.189   2.190
 8755W        W16157   2.209   4.530   8.348
 8756W        W16158   7.119   9.291   2.641
 8757W        W16159   5.122   1.234   0.723
 8758W        W16160   6.605   7.862   1.711
 8759W        W16161  18.799   4.561   7.865
 8760W        W16162  10.534   2.156   9.305
 8761W        W16163  14.410   5.496   7.891
 8762W        W16164   3.197   6.465   9.324
 8763W        W16165   6.629   3.591   0.718
 8764W        W16166   8.548   4.564   0.250
 8765W        W16167   2.700   9.293   0.259
 8766W        W16168  14.917   1.222   1.233
 8767W        W16169   8.058   1.685   9.305
 8768W        W16170   8.055   5.042   9.796
 8769W        W16171  14.913   4.072   1.686
 8770W        W16172   4.656   0.743   2.168
 8771W        W16173   0.260   8.337   8.842
 8772W        W16174  16.366   8.854   9.770
 8773W        W16175   6.606   3.100   2.177
 8774W        W16176  14.395   2.638   1.224
 8775W        W16177  15.373   0.285   8.343
 8776W        W16178  18.829   8.818   9.787
 8777W        W16179   9.522   3.575   9.316
 8778W        W16180  16.836   9.769   0.757
 8779W        W16181  15.386   9.770   7.900
 8780W        W16182   6.122   0.731   9.796
 8781W        W16183   9.533   8.355   8.851
 8782W        W16184  17.345   7.424   7.903
 8783W        W16185   0.765   3.101   1.214
 8784W        W16186   5.617   4.065   9.304
 8785W        W16187   1.718   6.910   9.792
 8786W        W16188   9.068   3.119   8.335
 8787W        W16189  15.398   1.234   7.412
 8788W        W16190  16.347   9.793   1.667
 8789W        W16191  11.977   7.890   9.806
 8790W        W16192  18.316   8.363   7.891
 8791W        W16193   5.632   9.316   0.248
 8792W        W16194   0.761   7.423   8.853
 8793W        W16195   5.160   6.927   7.405
 8794W        W16196  16.867   1.708   0.273
 8795W        W16197   8.073   9.803   0.735
 8796W        W16198   7.576   5.009   9.809
 8797W        W16199  16.358   6.472   9.792
 8798W        W16200   2.698   4.079   9.802
 8799W        W16201   1.224   5.476   1.209
 8800W        W16202  10.507   7.884   1.679
 8801W        W16203   3.209   2.635   8.376
 8802W        W16204   1.266   6.447   1.675
 8803W        W16205  16.856   8.376   9.290
 8804W        W16206  14.884   9.297   1.203
 8805W        W16207   5.163   0.273   1.202
 8806W        W16208  17.824   1.223   0.722
 8807W        W16209   3.682   6.920   2.619
 8808W        W16210   5.636   5.003   8.353
 8809W        W16211   3.694   8.848   1.701
 8810W        W16212   8.559   3.603   9.779
 8811W        W16213   3.183   5.038   0.284
 8812W        W16214   9.514   2.631   9.795
 8813W        W16215  14.401   9.793   0.259
 8814W        W16216   0.778   9.775   8.844
 8815W        W16217   2.237   2.167   0.742
 8816W        W16218   2.198   4.551   9.798
 8817W        W16219   2.697   5.047   1.685
 8818W        W16220  13.437   7.396   1.670
 8819W        W16221   8.078   9.771   1.201
 8820W        W16222  17.853   0.268   0.719
 8821W        W16223   6.127   0.255   9.308
 8822W        W16224   8.065   8.814   8.838
 8823W        W16225   3.701   6.454   0.280
 8824W        W16226  18.807   0.240   9.311
 8825W        W16227   6.622   7.893   8.348
 8826W        W16228  12.460   7.419   0.727
 8827W        W16229  12.449   7.904   0.261
 8828W        W16230  15.389   9.329   2.150
 8829W        W16231   1.756   3.097   9.767
 8830W        W16232  16.861   0.280   2.165
 8831W        W16233   0.767   7.395   0.757
 8832W        W16234  12.950   0.755   1.707
 8833W        W16235   6.634   5.000   1.696
 8834W        W16236   7.563   7.875   7.885
 8835W        W16237  15.395   2.179   8.853
 8836W        W16238   4.174   4.569   0.728
 8837W        W16239  19.775   7.384   9.325
 8838W        W16240   6.600   1.697   0.259
 8839W        W16241  19.304   9.765   8.813
 8840W        W16242   5.627   1.667   1.206
 8841W        W16243   9.533   6.912   9.805
 8842W        W16244   6.615   9.315   7.876
 8843W        W16245  13.916   8.361   0.244
 8844W        W16246  14.899   2.150   9.803
 8845W        W16247  11.014   6.452   7.860
 8846W        W16248  14.404   4.531   1.205
 8847W        W16249  19.288   8.855   1.686
 8848W        W16250   1.714   5.504   8.350
 8849W        W16251  10.523   0.256   1.713
 8850W        W16252   9.552   2.650   1.219
 8851W        W16253  10.000   2.145   9.800
 8852W        W16254   9.046   5.519   1.211
 8853W        W16255   8.083   2.172   9.289
 8854W        W16256  14.401   0.717   9.321
 8855W        W16257   8.067   1.203   8.810
 8856W        W16258  18.316   0.716   7.864
 8857W        W16259  17.840   9.308   1.688
 8858W        W16260  12.933   9.333   9.763
 8859W        W16261   9.560   9.795   2.176
 8860W        W16262   1.726   0.240   1.224
 8861W        W16263  14.414   3.125   9.321
 8862W        W16264   8.570   7.393   8.817
 8863W        W16265  16.867   5.491   0.249
 8864W        W16266  18.299   5.011   2.163
 8865W        W16267   7.593   4.051   9.802
 8866W        W16268  15.381   3.615   2.163
 8867W        W16269  13.925   7.904   1.691
 8868W        W16270  17.849   2.149   8.832
 8869W        W16271  14.402   2.631   7.897
 8870W        W16272  10.519   4.559   8.852
 8871W        W16273   3.210   0.241   1.683
 8872W        W16274  17.830   2.650   9.293
 8873W        W16275  18.334   4.085   1.193
 8874W        W16276   2.724   9.795   9.293
 8875W        W16277   7.101   4.571   7.896
 8876W        W16278  16.377   4.091   8.831
 8877W        W16279   6.138   7.406   9.329
 8878W        W16280  10.002   4.083   0.727
 8879W        W16281   9.523   8.380   0.260
 8880W        W16282   0.263   5.984   8.358
 8881W        W16283  10.003   4.539   1.195
 8882W        W16284   0.255   4.540   8.380
 8883W        W16285  13.425   7.391   7.866
 8884W        W16286  19.771   5.518   2.157
 8885W        W16287   6.622   8.350   2.144
 8886W        W16288  19.776   7.889   9.773
 8887W        W16289   6.123   6.933   1.685
 8888W        W16290   8.574   2.185   2.658
 8889W        W16291   1.264   9.768   0.275
 8890W        W16292   5.626   4.551   9.780
 8891W        W16293   3.197   4.082   0.239
 8892W        W16294   1.267   0.253   0.274
 8893W        W16295   0.279   8.811   0.241
 8894W        W16296   4.670   6.462   7.901
 8895W        W16297  10.533   8.362   2.168
 8896W        W16298  19.802   2.650   8.817
 8897W        W16299  15.879   9.766   2.161
 8898W        W16300   5.627   8.813   8.354
 8899W        W16301  18.782   5.519   2.148
 8900W        W16302  13.925   2.148   0.268
 8901W        W16303  12.455   1.673   0.253
 8902W        W16304  11.482   3.097   1.688
 8903W        W16305   2.202   5.497   0.727
 8904W        W16306   2.728   5.478   9.331
 8905W        W16307   9.037   6.441   2.164
 8906W        W16308   0.286   3.112   1.669
 8907W        W16309   2.712   3.103   8.849
 8908W        W16310  19.785   1.236   1.212
 8909W        W16311   9.060   8.357   0.271
 8910W        W16312   6.105   1.214   1.675
 8911W        W16313   7.593   7.402   2.186
 8912W        W16314   7.078   4.074   9.763
 8913W        W16315   4.669   7.870   2.182
 8914W        W16316   9.034   2.664   8.352
 8915W        W16317   7.096   0.737   0.268
 8916W        W16318  17.811   6.455   1.701
 8917W        W16319   1.250   9.325   8.344
 8918W        W16320   2.232   0.274   9.802
 8919W        W16321  15.899   7.885   9.301
 8920W        W16322   5.619   1.221   9.804
 8921W        W16323   0.764   7.420   9.322
 8922W        W16324   0.764   8.334   9.305
 8923W        W16325   4.174   7.865   7.890
 8924W        W16326   8.576   9.289   8.372
 8925W        W16327  11.500   2.145   1.218
 8926W        W16328   0.276   8.375   9.309
 8927W        W16329  17.816   4.050   7.889
 8928W        W16330  12.452   2.156   0.752
 8929W        W16331  15.873   3.580   9.309
 8930W        W16332  18.321   2.172   7.895
 8931W        W16333   7.585   7.874   2.159
 8932W        W16334  19.280   9.305   0.743
 8933W        W16335  12.450   9.299   1.222
 8934W        W16336  15.378   9.801   8.850
 8935W        W16337  13.930   3.577   8.366
 8936W        W16338  13.942   0.714   2.190
 8937W        W16339  10.496   3.573   9.797
 8938W        W16340  11.997   6.916   1.676
 8939W        W16341  10.529   9.770   9.766
 8940W        W16342   4.653   9.331   2.150
 8941W        W16343   5.632   0.739   9.799
 8942W        W16344  11.980   4.092   8.352
 8943W        W16345   2.206   5.037   2.172
 8944W        W16346  15.889   2.621   9.321
 8945W        W16347   2.214   1.210   8.360
 8946W        W16348  17.356   4.527   1.711
 8947W        W16349   3.217   2.642   9.774
 8948W        W16350  14.407   2.188   1.233
 8949W        W16351  13.428   6.432   0.262
 8950W        W16352  19.312   9.762   0.731
 8951W        W16353  15.869   0.741   2.664
 8952W        W16354   4.156   2.174   1.712
 8953W        W16355  11.987   5.004   9.307
 8954W        W16356   1.254   5.971   7.877
 8955W        W16357   8.537   2.164   0.256
 8956W        W16358   4.156   4.539   2.153
 8957W        W16359  13.919   7.409   1.236
 8958W        W16360  18.339   5.508   2.635
 8959W        W16361  18.789   8.815   1.230
 8960W        W16362   2.718   9.769   8.838
 8961W        W16363  12.958   1.195   0.719
 8962W        W16364   5.123   3.128   0.738
 8963W        W16365   5.635   8.367   7.899
 8964W        W16366   9.042   8.829   0.278
 8965W        W16367   9.540   6.468   8.350
 8966W        W16368  13.417   7.386   9.302
 8967W        W16369   0.282   5.965   1.209
 8968W        W16370   3.676   9.299   2.172
 8969W        W16371   4.177   6.476   0.741
 8970W        W16372   2.710   5.512   0.724
 8971W        W16373   0.756   3.122   1.682
 8972W        W16374   2.683   0.243   0.731
 8973W        W16375  18.304   5.506   8.340
 8974W        W16376   6.131   5.496   0.715
 8975W        W16377   5.654   7.410   9.783
 8976W        W16378   6.623   8.815   8.848
 8977W        W16379   2.212   3.607   2.181
 8978W        W16380   8.060   2.162   0.243
 8979W        W16381  13.439   5.490   7.861
 8980W        W16382   2.226   9.315   0.257
 8981W        W16383  18.326   9.311   8.365
 8982W        W16384   3.217   7.402   7.423
 8983W        W16385   6.126   9.289   0.716
 8984W        W16386  13.913   5.510   9.303
 8985W        W16387   6.624   5.017   2.152
 8986W        W16388   5.127   1.707   7.898
 8987W        W16389   6.113   5.962   8.848
 8988W        W16390   0.735   9.294   0.748
 8989W        W16391  12.941   9.326   0.719
 8990W        W16392   8.544   9.302   9.307
 8991W        W16393  19.284   2.160   2.175
 8992W        W16394   9.064   9.803   9.801
 8993W        W16395   1.733   1.689   1.205
 8994W        W16396   0.259   0.731   1.678
 8995W        W16397  16.867   4.070   1.232
 8996W        W16398  13.460   7.896   9.323
 8997W        W16399  15.404   4.073   8.851
 8998W        W16400   2.690   5.038   1.195
 8999W        W16401   7.086   2.625   7.871
 9000W        W16402  19.804   6.922   7.894
 9001W        W16403   1.728   5.492   1.205
 9002W        W16404  12.466   4.556   8.372
 9003W        W16405  15.385   4.059   1.199
 9004W        W16406   1.247   2.178   9.306
 9005W        W16407   2.711   7.867   1.200
 9006W        W16408   4.678   6.919   2.667
 9007W        W16409  10.503   3.113   1.711
 9008W        W16410  15.883   5.045   0.247
 9009W        W16411   6.120   4.546   1.708
 9010W        W16412  19.270   6.918   0.759
 9011W        W16413   9.552   9.305   8.344
 9012W        W16414   0.774   7.862   9.787
 9013W        W16415   2.697   7.406   0.717
 9014W        W16416   8.086   7.897   2.182
 9015W        W16417   7.589   5.023   2.186
 9016W        W16418  19.289   3.111   2.648
 9017W        W16419   5.171   6.934   7.859
 9018W        W16420  13.942   9.804   7.861
 9019W        W16421  14.922   8.344   8.342
 9020W        W16422  13.950   9.796   2.167
 9021W        W16423   4.148   9.298   2.165
 9022W        W16424  16.371   1.679   1.686
 9023W        W16425   8.568   0.757   0.748
 9024W        W16426  12.480   2.622   0.280
 9025W        W16427   6.621   5.022   8.849
 9026W        W16428   2.202   7.897   7.387
 9027W        W16429  11.496   0.759   8.347
 9028W        W16430  17.808   2.166   7.405
 9029W        W16431  16.874   9.309   8.359
 9030W        W16432  13.448   7.414   1.221
 9031W        W16433   2.227   1.236   7.892
 9032W        W16434  18.825   5.955   8.359
 9033W        W16435  16.349   6.449   1.238
 9034W        W16436  11.487   7.404   2.167
 9035W        W16437  10.997   3.590   2.655
 9036W        W16438  10.049   2.173   8.363
 9037W        W16439  17.809   7.402   1.234
 9038W        W16440  11.959   3.611   8.819
 9039W        W16441   0.291   3.589   1.704
 9040W        W16442  12.955   5.491   7.872
 9041W        W16443  18.820   1.713   8.829
 9042W        W16444   1.716   7.898   8.355
 9043W        W16445  17.846   4.545   9.782
 9044W        W16446  17.846   5.977   8.829
 9045W        W16447   8.070   5.968   2.175
 9046W        W16448   3.668   9.778   0.280
 9047W        W16449  11.480   1.673   0.732
 9048W        W16450  13.421   7.411   8.819
 9049W        W16451  16.379   4.543   9.802
 9050W        W16452  11.009   4.048   1.223
 9051W        W16453   0.284   9.289   0.258
 9052W        W16454  18.826   0.714   8.829
 9053W        W16455  18.783   2.650   1.208
 9054W        W16456  11.973   3.615   8.365
 9055W        W16457  17.841   3.580   8.343
 9056W        W16458   7.578   4.064   1.205
 9057W        W16459   5.150   0.741   8.830
 9058W        W16460  10.018   5.026   9.326
 9059W        W16461  18.326   8.347   8.829
 9060W        W16462   2.212   1.227   2.148
 9061W        W16463   1.231   9.329   7.870
 9062W        W16464   1.244   7.383   0.745
 9063W        W16465   2.231   1.707   3.103
 9064W        W16466   1.739   3.134   0.261
 9065W        W16467  11.022   5.959   0.757
 9066W        W16468   9.038   0.273   8.811
 9067W        W16469  13.422   3.572   9.321
 9068W        W16470  12.957   5.963   0.716
 9069W        W16471  10.522   3.114   2.652
 9070W        W16472  10.020   3.106   8.852
 9071W        W16473   6.106   9.793   0.753
 9072W        W16474   9.042   5.496   7.878
 9073W        W16475  17.846   6.932   2.658
 9074W        W16476   1.747   7.885   7.897
 9075W        W16477  17.846   5.003   7.878
 9076W        W16478   7.087   9.303   0.273
 9077W        W16479  16.839   9.800   7.900
 9078W        W16480   6.117   0.728   0.757
 9079W        W16481  16.835   2.662   1.226
 9080W        W16482  16.838   8.374   8.353
 9081W        W16483  16.835   5.036   7.879
 9082W        W16484  11.471   7.417   7.899
 9083W        W16485  12.962   5.035   8.839
 9084W        W16486  10.023   3.613   9.312
 9085W        W16487  11.501   4.081   8.380
 9086W        W16488   0.755   2.650   7.881
 9087W        W16489   7.586   6.452   0.266
 9088W        W16490  15.856   9.767   1.195
 9089W        W16491  10.040   5.970   0.262
 9090W        W16492  18.301   9.316   0.759
 9091W        W16493   4.664   1.706   9.781
 9092W        W16494   3.673   3.598   8.821
 9093W        W16495  17.332   0.240   0.756
 9094W        W16496  15.368   5.011   8.378
 9095W        W16497  19.286   8.343   8.818
 9096W        W16498   4.665   3.604   8.378
 9097W        W16499  11.479   6.457   8.819
 9098W        W16500   7.597   4.557   9.288
 9099W        W16501  16.374   1.235   2.152
 9100W        W16502  19.768   9.299   8.813
 9101W        W16503   1.719   5.480   8.817
 9102W        W16504   8.050   6.947   0.257
 9103W        W16505  11.987   5.492   8.819
 9104W        W16506   6.129   8.814   2.189
 9105W        W16507  10.982   5.020   2.161
 9106W        W16508   3.677   2.175   2.190
 9107W        W16509  19.778   6.000   9.300
 9108W        W16510   5.133   5.969   1.222
 9109W        W16511  12.487   6.464   0.726
 9110W        W16512  17.835   6.913   1.691
 9111W        W16513   0.249   2.184   9.767
 9112W        W16514  15.376   0.735   9.766
 9113W        W16515   1.736   1.711   8.370
 9114W        W16516  16.361   1.195   8.828
 9115W        W16517   2.239   0.759   0.257
 9116W        W16518   5.630   2.187   9.311
 9117W        W16519   3.201   0.273   8.823
 9118W        W16520   9.516   0.241   9.770
 9119W        W16521  10.042   4.537   8.818
 9120W        W16522   2.222   2.155   8.847
 9121W        W16523   5.162   8.842   0.761
 9122W        W16524   4.642   3.102   8.377
 9123W        W16525   5.155   5.508   1.191
 9124W        W16526   0.743   7.893   7.865
 9125W        W16527   3.671   8.810   2.188
 9126W        W16528   7.096   9.302   0.755
 9127W        W16529  16.864   5.973   9.315
 9128W        W16530   1.721   9.291   9.318
 9129W        W16531  12.958   8.360   8.346
 9130W        W16532   5.154   6.916   8.839
 9131W        W16533   0.261   2.619   7.875
 9132W        W16534  15.404   5.990   7.879
 9133W        W16535  15.405   6.453   7.901
 9134W        W16536   5.136   3.126   7.870
 9135W        W16537  17.347   3.580   8.823
 9136W        W16538   2.236   3.095   0.247
 9137W        W16539  11.975   9.299   9.316
 9138W        W16540   2.705   1.668   8.363
 9139W        W16541   8.545   3.584   0.733
 9140W        W16542   8.560   8.351   9.332
 9141W        W16543  11.970   7.401   8.849
 9142W        W16544   4.639   0.269   7.886
 9143W        W16545   4.168   9.324   1.710
 9144W        W16546  10.013   9.329   8.346
 9145W        W16547   6.122   3.619   9.783
 9146W        W16548   1.240   4.070   0.760
 9147W        W16549   3.665   1.682   0.260
 9148W        W16550  17.362   1.710   1.219
 9149W        W16551  12.464   6.925   8.335
 9150W        W16552   4.176   0.242   2.150
 9151W        W16553  18.794   1.680   0.273
 9152W        W16554   3.664   6.906   8.337
 9153W        W16555  14.887   0.246   7.863
 9154W        W16556   1.229   1.696   7.874
 9155W        W16557   1.739   4.554   0.278
 9156W        W16558  15.393   9.288   8.377
 9157W        W16559  17.350   1.673   8.349
 9158W        W16560   2.211   6.924   2.172
 9159W        W16561   0.758   0.734   9.289
 9160W        W16562   6.614   5.498   9.320
 9161W        W16563  11.472   5.489   7.390
 9162W        W16564   2.229   6.465   1.673
 9163W        W16565  11.478   1.690   1.706
 9164W        W16566  15.898   4.535   1.212
 9165W        W16567   9.053   1.675   9.774
 9166W        W16568   7.105   4.067   2.150
 9167W        W16569   1.235   7.885   0.736
 9168W        W16570   8.561   4.553   7.870
 9169W        W16571   5.132   0.242   2.174
 9170W        W16572  10.022   0.742   7.903
 9171W        W16573  18.813   1.231   7.861
 9172W        W16574  17.335   7.875   1.674
 9173W        W16575  12.963   4.056   2.181
 9174W        W16576  11.977   0.754   9.323
 9175W        W16577   0.733   1.668   1.688
 9176W        W16578   7.085   7.901   1.701
 9177W        W16579   8.549   6.460   8.844
 9178W        W16580  12.459   8.335   8.354
 9179W        W16581   4.156   1.696   9.764
 9180W        W16582   2.708   5.980   0.255
 9181W        W16583  13.933   7.419   0.717
 9182W        W16584  19.269   5.020   0.735
 9183W        W16585  18.819   0.252   0.278
 9184W        W16586  16.382   0.247   7.404
 9185W        W16587   2.689   3.134   8.369
 9186W        W16588   0.735   8.821   1.197
 9187W        W16589  10.001   1.200   9.787
 9188W        W16590  17.810   1.223   7.874
 9189W        W16591   5.620   5.998   2.186
 9190W        W16592   5.129   4.052   9.289
 9191W        W16593  19.792   9.774   7.892
 9192W        W16594  15.385   4.527   0.284
 9193W        W16595  15.374   8.845   0.264
 9194W        W16596  13.457   6.458   7.881
 9195W        W16597   1.261   7.894   7.383
 9196W        W16598  19.312   3.142   2.156
 9197W        W16599   7.591   9.794   2.187
 9198W        W16600   0.757   8.365   1.696
 9199W        W16601  13.938   0.753   7.870
 9200W        W16602  16.375   5.028   1.703
 9201W        W16603  12.472   3.101   8.366
 9202W        W16604  14.426   9.771   0.754
 9203W        W16605  17.362   6.434   1.195
 9204W        W16606  19.774   5.024   0.747
 9205W        W16607  17.329   8.846   7.901
 9206W        W16608  18.300   3.600   9.312
 9207W        W16609  14.893   4.565   2.188
 9208W        W16610  13.930   1.668   2.148
 9209W        W16611  13.931   5.001   8.856
 9210W        W16612  17.317   9.302   9.767
 9211W        W16613   8.087   0.729   0.741
 9212W        W16614  14.416   6.434   8.832
 9213W        W16615   5.165   9.297   0.269
 9214W        W16616   0.267   5.513   2.621
 9215W        W16617   8.549   5.043   0.759
 9216W        W16618   3.699   4.057   8.819
 9217W        W16619  16.843   8.812   2.161
 9218W        W16620  15.881   4.540   1.698
 9219W        W16621  17.852   3.140   7.861
 9220W        W16622  13.463   4.528   2.147
 9221W        W16623   6.632   5.989   8.352
 9222W        W16624  19.291   3.587   9.772
 9223W        W16625   4.645   4.553   0.736
 9224W        W16626   7.568   0.732   2.638
 9225W        W16627   8.584   0.243   1.197
 9226W        W16628  13.458   2.626   1.217
 9227W        W16629   6.598   4.530   7.876
 9228W        W16630  16.389   4.552   2.144
 9229W        W16631   8.570   9.800   2.149
 9230W        W16632   3.174   7.881   1.702
 9231W        W16633  17.821   3.143   1.214
 9232W        W16634   3.188   9.767   2.151
 9233W        W16635  17.815   2.176   2.174
 9234W        W16636  10.506   0.725   9.289
 9235W        W16637  11.466   9.789   8.816
 9236W        W16638   1.710   7.422   9.286
 9237W        W16639   2.206   9.783   2.648
 9238W        W16640  18.820   7.880   1.218
 9239W        W16641  18.824   9.320   7.886
 9240W        W16642  14.883   1.712   1.234
 9241W        W16643   0.745   5.044   1.704
 9242W        W16644   8.576   6.912   8.837
 9243W        W16645  10.032   3.127   7.890
 9244W        W16646  18.804   1.201   8.354
 9245W        W16647   7.074   9.297   7.880
 9246W        W16648  18.320   3.102   0.246
 9247W        W16649   5.152   7.888   1.216
 9248W        W16650   6.586   1.225   9.287
 9249W        W16651  15.886   2.144   9.776
 9250W        W16652   5.168   8.363   8.835
 9251W        W16653   2.211   5.036   1.214
 9252W        W16654   8.554   0.283   9.311
 9253W        W16655   9.067   5.501   0.715
 9254W        W16656  19.317   0.268   0.744
 9255W        W16657   4.184   8.358   8.338
 9256W        W16658  15.403   5.516   1.712
 9257W        W16659  15.394   0.738   7.863
 9258W        W16660  15.897   5.020   0.752
 9259W        W16661   7.596   3.116   1.192
 9260W        W16662  14.436   5.025   2.162
 9261W        W16663  10.515   6.931   7.417
 9262W        W16664   2.212   5.975   8.828
 9263W        W16665  12.447   7.891   1.681
 9264W        W16666  17.343   1.692   9.772
 9265W        W16667  12.462   8.380   2.152
 9266W        W16668  16.376   4.070   0.722
 9267W        W16669   2.708   1.678   9.294
 9268W        W16670   5.611   3.600   9.792
 9269W        W16671  14.430   4.085   0.726
 9270W        W16672   2.699   6.451   1.226
 9271W        W16673   0.779   4.071   8.336
 9272W        W16674  18.340   0.748   9.297
 9273W        W16675   0.772   0.268   1.708
 9274W        W16676  10.035   0.718   1.677
 9275W        W16677  12.956   0.278   7.874
 9276W        W16678  11.464   6.471   8.370
 9277W        W16679   1.258   0.728   7.401
 9278W        W16680  14.402   1.223   2.145
 9279W        W16681  11.961   7.412   0.278
 9280W        W16682  12.947   5.479   0.715
 9281W        W16683   5.154   8.360   1.212
 9282W        W16684  18.824   4.526   9.771
 9283W        W16685  11.020   3.617   7.883
 9284W        W16686   8.574   6.927   0.732
 9285W        W16687   1.240   4.084   8.346
 9286W        W16688   5.138   2.154   8.344
 9287W        W16689   3.681   8.361   9.333
 9288W        W16690   1.262   4.531   0.717
 9289W        W16691   8.065   6.917   1.202
 9290W        W16692   3.674   2.631   0.736
 9291W        W16693  14.429   4.060   0.248
 9292W        W16694  10.521   8.347   7.386
 9293W        W16695  17.831   7.867   7.871
 9294W        W16696   3.192   1.195   2.190
 9295W        W16697   4.681   9.766   9.781
 9296W        W16698   1.708   8.840   1.675
 9297W        W16699  14.433   1.711   2.165
 9298W        W16700   0.255   5.978   0.751
 9299W        W16701   3.694   5.035   8.845
 9300W        W16702  19.793   8.347   1.693
 9301W        W16703   6.132   9.293   8.370
 9302W        W16704  15.394   3.115   1.706
 9303W        W16705   0.283   5.959   9.808
 9304W        W16706   5.137   2.650   2.171
 9305W        W16707  12.441   2.623   8.841
 9306W        W16708  14.919   4.081   7.891
 9307W        W16709   9.060   2.630   1.229
 9308W        W16710   1.226   5.967   2.179
 9309W        W16711   2.196   3.112   7.871
 9310W        W16712   9.545   3.135   0.730
 9311W        W16713  19.278   1.697   2.186
 9312W        W16714   5.633   7.396   2.188
 9313W        W16715   8.096   5.011   8.343
 9314W        W16716   0.768   3.585   8.817
 9315W        W16717  13.463   4.542   9.774
 9316W        W16718   1.259   8.367   2.186
 9317W        W16719  16.868   7.858   0.756
 9318W        W16720   9.034   9.323   1.192
 9319W        W16721   4.156   0.277   0.242
 9320W        W16722  18.781   8.360   2.154
 9321W        W16723   0.281   0.251   1.674
 9322W        W16724  16.348   5.984   8.856
 9323W        W16725  15.396   6.946   0.715
 9324W        W16726  17.805   5.488   1.228
 9325W        W16727  15.377   7.879   7.887
 9326W        W16728  19.284   8.828   1.237
 9327W        W16729   2.718   4.558   0.284
 9328W        W16730   5.610   5.490   2.187
 9329W        W16731   1.236   4.060   1.701
 9330W        W16732   5.643   7.896   8.345
 9331W        W16733   7.080   5.045   0.278
 9332W        W16734  16.358   1.701   0.729
 9333W        W16735  16.357   5.984   9.776
 9334W        W16736  14.412   9.293   2.628
 9335W        W16737   1.726   7.398   2.148
 9336W        W16738  13.941   6.432   9.307
 9337W        W16739   9.528   3.107   8.349
 9338W        W16740   5.612   5.500   8.841
 9339W        W16741  16.842   2.150   8.374
 9340W        W16742   0.760   5.004   1.195
 9341W        W16743  19.311   5.482   9.306
 9342W        W16744  13.933   5.998   7.876
 9343W        W16745   4.160   2.151   9.296
 9344W        W16746   3.672   8.348   8.370
 9345W        W16747   8.583   1.223   1.669
 9346W        W16748  15.394   5.036   0.269
 9347W        W16749  12.475   4.089   1.218
 9348W        W16750   3.174   2.162   7.869
 9349W        W16751   3.671   2.166   0.276
 9350W        W16752   4.184   5.032   0.265
 9351W        W16753   5.623   0.751   9.320
 9352W        W16754  16.851   2.644   8.819
 9353W        W16755  13.438   5.970   0.720
 9354W        W16756   5.163   9.301   9.792
 9355W        W16757  12.459   5.518   0.260
 9356W        W16758   5.629   6.906   1.683
 9357W        W16759  11.953   9.328   9.774
 9358W        W16760  15.403   4.571   9.320
 9359W        W16761  14.423   5.994   1.216
 9360W        W16762  13.421   5.479   8.353
 9361W        W16763  15.897   9.787   0.244
 9362W        W16764   5.140   5.965   9.773
 9363W        W16765   2.731   7.893   8.380
 9364W        W16766  11.009   6.951   8.356
 9365W        W16767   5.657   1.703   0.247
 9366W        W16768  19.287   4.072   8.827
 9367W        W16769  10.014   8.855   9.318
 9368W        W16770   7.589   2.190   8.340
 9369W        W16771   7.106   3.114   8.380
 9370W        W16772   2.231   5.990   1.202
 9371W        W16773   6.607   2.190   0.268
 9372W        W16774   0.761   4.077   2.143
 9373W        W16775   9.532   7.877   7.903
 9374W        W16776   7.106   8.353   1.677
 9375W        W16777   3.173   7.879   2.179
 9376W        W16778  18.790   7.412   1.196
 9377W        W16779  16.865   2.665   9.330
 9378W        W16780   2.200   5.962   8.367
 9379W        W16781  16.382   0.746   8.854
 9380W        W16782  13.455   5.972   1.216
 9381W        W16783   1.723   2.625   1.713
 9382W        W16784   8.546   5.034   8.826
 9383W        W16785  18.815   5.019   9.781
 9384W        W16786   9.026   1.192   2.181
 9385W        W16787  19.293   3.577   8.813
 9386W        W16788   4.655   0.753   9.314
 9387W        W16789   2.718   5.488   7.384
 9388W        W16790   1.237   6.913   8.362
 9389W        W16791   8.061   8.825   8.377
 9390W        W16792  14.890   2.145   0.742
 9391W        W16793  12.956   7.411   9.290
 9392W        W16794  17.833   1.677   1.226
 9393W        W16795  13.432   2.659   9.786
 9394W        W16796  15.857   9.295   1.683
 9395W        W16797   6.133   6.441   0.271
 9396W        W16798  19.779   3.608   1.236
 9397W        W16799   4.672   7.902   7.892
 9398W        W16800   3.680   4.064   0.243
 9399W        W16801   1.750   5.006   9.305
 9400W        W16802  15.402   6.943   8.379
 9401W        W16803   0.272   9.805   9.320
 9402W        W16804  17.319   9.762   1.677
 9403W        W16805   6.117   6.931   8.852
 9404W        W16806  19.788   8.335   7.862
 9405W        W16807   2.698   4.565   1.216
 9406W        W16808   0.764   7.426   0.274
 9407W        W16809   0.767   5.513   0.255
 9408W        W16810  10.512   5.980   9.800
 9409W        W16811  10.995   0.249   1.691
 9410W        W16812   4.640   6.933   0.747
 9411W        W16813   2.226   8.814   7.899
 9412W        W16814  16.834   3.113   1.222
 9413W        W16815  14.402   0.269   2.145
 9414W        W16816   1.749   1.684   9.332
 9415W        W16817  10.490   8.371   8.830
 9416W        W16818  12.974   3.572   1.701
 9417W        W16819  12.456   4.080   8.811
 9418W        W16820   4.668   5.999   2.184
 9419W        W16821  17.850   2.655   1.670
 9420W        W16822   7.600   1.687   2.177
 9421W        W16823   8.080   8.359   9.785
 9422W        W16824  19.310   2.165   0.268
 9423W        W16825   5.141   9.329   8.828
 9424W        W16826  10.006   3.587   0.747
 9425W        W16827  12.973   3.604   8.361
 9426W        W16828  17.850   2.661   9.803
 9427W        W16829  17.326   0.254   9.296
 9428W        W16830   2.719   0.744   2.636
 9429W        W16831   7.595   9.788   7.892
 9430W        W16832  13.450   0.719   1.198
 9431W        W16833  15.878   1.223   7.897
 9432W        W16834  17.321   9.809   9.298
 9433W        W16835  14.897   2.170   9.314
 9434W        W16836  18.313   9.790   0.251
 9435W        W16837  12.933   8.836   2.166
 9436W        W16838  13.941   2.153   0.727
 9437W        W16839   8.051   3.612   8.348
 9438W        W16840  17.843   2.172   9.294
 9439W        W16841  16.854   9.806   8.343
 9440W        W16842  17.331   0.731   9.318
 9441W        W16843   6.619   3.606   1.672
 9442W        W16844  13.908   3.116   1.214
 9443W        W16845   3.199   7.402   8.833
 9444W        W16846  10.489   7.405   0.723
 9445W        W16847   1.750   0.736   8.339
 9446W        W16848   1.755   4.060   1.688
 9447W        W16849   9.537   0.284   0.741
 9448W        W16850  15.408   5.972   1.712
 9449W        W16851   2.215   5.511   9.290
 9450W        W16852   6.611   2.640   9.788
 9451W        W16853   5.154   8.854   2.187
 9452W        W16854   6.614   2.634   0.760
 9453W        W16855  11.954   0.725   2.164
 9454W        W16856   0.752   0.742   7.399
 9455W        W16857  16.837   5.991   0.753
 9456W        W16858   3.176   4.085   2.641
 9457W        W16859   2.723   2.641   2.145
 9458W        W16860   1.724   0.250   8.380
 9459W        W16861   6.123   4.050   9.322
 9460W        W16862  19.796   0.741   0.261
 9461W        W16863  16.351   2.166   7.886
 9462W        W16864   5.640   4.562   8.338
 9463W        W16865  11.497   4.058   1.218
 9464W        W16866  13.939   3.601   9.296
 9465W        W16867  15.389   8.823   8.815
 9466W        W16868  14.909   5.015   1.218
 9467W        W16869  17.358   5.977   9.804
 9468W        W16870  19.764   6.950   1.677
 9469W        W16871  14.889   0.272   1.198
 9470W        W16872   7.608   9.303   2.155
 9471W        W16873  15.856   2.637   0.283
 9472W        W16874  14.903   3.133   0.252
 9473W        W16875   7.085   1.682   7.859
 9474W        W16876  18.341   5.487   1.195
 9475W        W16877  10.999   4.527   0.753
 9476W        W16878  18.819   6.919   9.296
 9477W        W16879   6.599   0.254   8.372
 9478W        W16880   2.230   4.544   0.265
 9479W        W16881  12.486   9.769   9.770
 9480W        W16882  13.438   5.021   9.323
 9481W        W16883   6.617   4.527   9.291
 9482W        W16884   2.718   7.421   8.812
 9483W        W16885  16.844   4.529   8.343
 9484W        W16886  13.435   9.763   9.779
 9485W        W16887  15.410   1.667   1.670
 9486W        W16888  14.429   1.669   1.682
 9487W        W16889  15.873   2.167   0.252
 9488W        W16890   5.162   8.826   9.779
 9489W        W16891  11.977   1.222   2.148
 9490W        W16892   6.629   8.856   0.243
 9491W        W16893  15.883   3.615   2.182
 9492W        W16894   8.562   1.217   0.758
 9493W        W16895  12.952   0.730   7.879
 9494W        W16896   7.075   4.528   1.667
 9495W        W16897   7.102   8.339   8.344
 9496W        W16898   5.156   2.189   1.668
 9497W        W16899  16.848   3.612   1.198
 9498W        W16900  10.521   5.977   7.858
 9499W        W16901  15.892   7.422   1.681
 9500W        W16902   7.076   1.227   0.725
 9501W        W16903   6.127   7.398   8.362
 9502W        W16904   1.738   4.049   8.815
 9503W        W16905  17.358   4.563   1.227
 9504W        W16906  17.333   3.141   1.195
 9505W        W16907  16.845   3.591   8.837
 9506W        W16908   5.128   4.051   8.366
 9507W        W16909   5.622   2.661   8.856
 9508W        W16910  15.861   5.519   2.626
 9509W        W16911  18.807   9.787   9.318
 9510W        W16912  14.401   1.222   7.873
 9511W        W16913  10.976   1.696   2.178
 9512W        W16914   5.143   9.771   1.211
 9513W        W16915  11.466   1.207   1.701
 9514W        W16916  16.342   9.323   7.877
 9515W        W16917  19.301   5.479   8.811
 9516W        W16918   5.623   8.339   2.183
 9517W        W16919  15.388   5.523   7.387
 9518W        W16920  11.995   8.344   2.183
 9519W        W16921  18.324   0.746   1.693
 9520W        W16922   0.760   0.239   8.851
 9521W        W16923  12.961   0.758   9.786
 9522W        W16924  15.885   7.899   7.900
 9523W        W16925   2.232   7.895   0.715
 9524W        W16926  18.335   3.123   7.879
 9525W        W16927  17.831   3.129   9.770
 9526W        W16928   1.724   2.655   0.268
 9527W        W16929  13.416   0.729   0.729
 9528W        W16930   1.735   8.856   8.372
 9529W        W16931  11.999   0.239   1.215
 9530W        W16932  13.934   6.465   0.716
 9531W        W16933   5.131   6.944   0.762
 9532W        W16934  17.834   4.566   9.288
 9533W        W16935   5.639   9.769   2.175
 9534W        W16936  19.273   5.952   2.647
 9535W        W16937   3.682   7.895   0.740
 9536W        W16938  11.498   5.491   9.288
 9537W        W16939  12.470   7.867   2.152
 9538W        W16940  11.473   2.147   7.874
 9539W        W16941   8.569   2.666   8.839
 9540W        W16942  19.762   4.556   9.781
 9541W        W16943   8.572   0.739   0.263
 9542W        W16944  14.900   1.194   1.671
 9543W        W16945  18.790   5.516   1.191
 9544W        W16946   4.194   1.703   1.228
 9545W        W16947  13.416   0.282   0.263
 9546W        W16948  11.020   8.850   1.231
 9547W        W16949  10.992   8.380   7.889
 9548W        W16950  12.971   3.112   7.901
 9549W        W16951   9.031   5.957   0.740
 9550W        W16952  14.878   3.583   1.692
 9551W        W16953  19.271   8.355   1.215
 9552W        W16954   6.590   6.944   9.788
 9553W        W16955  16.842   3.126   9.772
 9554W        W16956  11.956   7.879   8.816
 9555W        W16957  10.006   2.167   1.230
 9556W        W16958  16.369   9.323   8.371
 9557W        W16959   0.780   7.387   2.168
 9558W        W16960   6.115   8.336   2.149
 9559W        W16961   2.726   9.313   7.885
 9560NA      NA16962  14.913   3.127   0.746
 9561NA      NA16963   8.061   3.581   0.266
 9562NA      NA16964   3.698   3.588   1.233
 9563NA      NA16965  10.505   2.622   2.158
 9564NA      NA16966  11.952   5.986   2.143
 9565NA      NA16967  18.325   4.092   1.707
  20.00000  10.00000  10.00000
