Protein in INSANE! Membrane UpperLeaflet>DOPC=1 LowerLeaflet>DOPC=1
17010
    1PF10C   C1    1   9.858   7.226   4.925
    1PF10C   F2    2   9.706   2.433   4.942
    1PF10C   F3    3   9.828   2.551   5.082
    1PF10C   F4    4   9.867   2.392   5.244
    1PF10C   F5    5   9.843   2.529   5.413
    1PF10C   F6    6   9.978   2.694   5.329
    1PF10C   F7    7   9.848   2.862   5.389
    1PF10C   F8    8   9.817   2.789   5.604
    1PF10C   F9    9   9.831   2.988   5.697
    1PF10C  F10   10   9.673   3.088   5.562
    2PF10C   C1   11  11.115   5.301   3.620
    2PF10C   F2   12  11.268   5.409   8.448
    2PF10C   F3   13  11.446   5.306   3.554
    2PF10C   F4   14  11.610   5.424   8.415
    2PF10C   F5   15  11.737   5.250   8.370
    2PF10C   F6   16  11.730   5.163   3.612
    2PF10C   F7   17  11.715   4.953   3.547
    2PF10C   F8   18  11.887   4.964   8.366
    2PF10C   F9   19  11.974   4.768   8.415
    2PF10C  F10   20  11.779   4.649   8.389
    3PF10C   C1   21   8.333   7.144   4.356
    3PF10C   F2   22   8.265   6.952   4.240
    3PF10C   F3   23   8.465   6.898   4.165
    3PF10C   F4   24   8.417   6.697   4.064
    3PF10C   F5   25   8.545   6.728   3.889
    3PF10C   F6   26   8.625   6.513   3.880
    3PF10C   F7   27   8.617   6.495   3.660
    3PF10C   F8   28   8.720   6.695   3.617
    3PF10C   F9   29   8.842   6.621   8.419
    3PF10C  F10   30   8.667   6.529   8.303
    4DOPC   NC3   31   1.067   5.827   5.452
    4DOPC   PO4   32   1.055   5.742   5.152
    4DOPC   GL1   33   0.982   5.828   4.851
    4DOPC   GL2   34   1.205   5.851   4.851
    4DOPC   C1A   35   1.052   5.771   4.551
    4DOPC   D2A   36   1.006   5.790   4.252
    4DOPC   C3A   37   1.009   5.756   3.952
    4DOPC   C4A   38   1.006   5.808   3.651
    4DOPC   C1B   39   1.349   5.829   4.551
    4DOPC   D2B   40   1.394   5.870   4.252
    4DOPC   C3B   41   1.411   5.809   3.952
    4DOPC   C4B   42   1.368   5.872   3.651
    5DOPC   NC3   43  10.362   3.635   5.452
    5DOPC   PO4   44  10.312   3.670   5.152
    5DOPC   GL1   45  10.335   3.659   4.851
    5DOPC   GL2   46  10.450   3.561   4.851
    5DOPC   C1A   47  10.278   3.699   4.551
    5DOPC   D2A   48  10.295   3.633   4.252
    5DOPC   C3A   49  10.309   3.665   3.952
    5DOPC   C4A   50  10.365   3.687   3.651
    5DOPC   C1B   51  10.574   3.382   4.551
    5DOPC   D2B   52  10.570   3.369   4.252
    5DOPC   C3B   53  10.591   3.386   3.952
    5DOPC   C4B   54  10.550   3.370   3.651
    6DOPC   NC3   55  15.080   9.096   5.452
    6DOPC   PO4   56  15.026   9.104   5.152
    6DOPC   GL1   57  15.104   9.067   4.851
    6DOPC   GL2   58  15.100   8.912   4.851
    6DOPC   C1A   59  15.047   9.080   4.551
    6DOPC   D2A   60  15.051   9.118   4.252
    6DOPC   C3A   61  15.024   9.042   3.952
    6DOPC   C4A   62  15.051   9.060   3.651
    6DOPC   C1B   63  15.056   8.764   4.551
    6DOPC   D2B   64  15.071   8.680   4.252
    6DOPC   C3B   65  14.991   8.698   3.952
    6DOPC   C4B   66  15.037   8.718   3.651
    7DOPC   NC3   67  15.913   7.987   5.452
    7DOPC   PO4   68  15.990   7.987   5.152
    7DOPC   GL1   69  15.929   8.003   4.851
    7DOPC   GL2   70  15.796   8.109   4.851
    7DOPC   C1A   71  15.990   8.023   4.551
    7DOPC   D2A   72  15.942   8.027   4.252
    7DOPC   C3A   73  15.911   8.024   3.952
    7DOPC   C4A   74  15.985   7.981   3.651
    7DOPC   C1B   75  15.707   8.230   4.551
    7DOPC   D2B   76  15.716   8.246   4.252
    7DOPC   C3B   77  15.649   8.232   3.952
    7DOPC   C4B   78  15.731   8.247   3.651
    8DOPC   NC3   79   1.083   4.962   5.452
    8DOPC   PO4   80   1.057   4.968   5.152
    8DOPC   GL1   81   1.004   4.970   4.851
    8DOPC   GL2   82   1.205   5.017   4.851
    8DOPC   C1A   83   1.035   5.030   4.551
    8DOPC   D2A   84   1.068   4.995   4.252
    8DOPC   C3A   85   1.017   4.972   3.952
    8DOPC   C4A   86   1.009   4.997   3.651
    8DOPC   C1B   87   1.411   5.090   4.551
    8DOPC   D2B   88   1.408   5.089   4.252
    8DOPC   C3B   89   1.364   5.078   3.952
    8DOPC   C4B   90   1.388   5.108   3.651
    9DOPC   NC3   91  12.889   8.807   5.452
    9DOPC   PO4   92  12.879   8.791   5.152
    9DOPC   GL1   93  12.884   8.822   4.851
    9DOPC   GL2   94  12.712   8.887   4.851
    9DOPC   C1A   95  12.856   8.773   4.551
    9DOPC   D2A   96  12.949   8.845   4.252
    9DOPC   C3A   97  12.927   8.761   3.952
    9DOPC   C4A   98  12.932   8.803   3.651
    9DOPC   C1B   99  12.597   9.007   4.551
    9DOPC   D2B  100  12.540   9.009   4.252
    9DOPC   C3B  101  12.587   8.937   3.952
    9DOPC   C4B  102  12.626   8.959   3.651
   10DOPC   NC3  103   2.557   6.554   5.452
   10DOPC   PO4  104   2.571   6.561   5.152
   10DOPC   GL1  105   2.572   6.566   4.851
   10DOPC   GL2  106   2.716   6.558   4.851
   10DOPC   C1A  107   2.551   6.564   4.551
   10DOPC   D2A  108   2.558   6.541   4.252
   10DOPC   C3A  109   2.538   6.540   3.952
   10DOPC   C4A  110   2.523   6.569   3.651
   10DOPC   C1B  111   2.948   6.595   4.551
   10DOPC   D2B  112   2.963   6.607   4.252
   10DOPC   C3B  113   2.928   6.590   3.952
   10DOPC   C4B  114   2.911   6.581   3.651
   11DOPC   NC3  115  10.983   0.446   5.452
   11DOPC   PO4  116  10.998   0.392   5.152
   11DOPC   GL1  117  11.040   0.435   4.851
   11DOPC   GL2  118  11.163   0.412   4.851
   11DOPC   C1A  119  11.049   0.421   4.551
   11DOPC   D2A  120  11.042   0.362   4.252
   11DOPC   C3A  121  11.065   0.365   3.952
   11DOPC   C4A  122  10.994   0.357   3.651
   11DOPC   C1B  123  11.369   0.491   4.551
   11DOPC   D2B  124  11.366   0.430   4.252
   11DOPC   C3B  125  11.340   0.482   3.952
   11DOPC   C4B  126  11.335   0.496   3.651
   12DOPC   NC3  127  18.902   6.030   5.452
   12DOPC   PO4  128  18.959   5.959   5.152
   12DOPC   GL1  129  18.882   6.013   4.851
   12DOPC   GL2  130  18.930   5.868   4.851
   12DOPC   C1A  131  18.905   6.025   4.551
   12DOPC   D2A  132  18.897   6.014   4.252
   12DOPC   C3A  133  18.925   5.954   3.952
   12DOPC   C4A  134  18.964   5.981   3.651
   12DOPC   C1B  135  18.878   5.630   4.551
   12DOPC   D2B  136  18.914   5.684   4.252
   12DOPC   C3B  137  18.846   5.619   3.952
   12DOPC   C4B  138  18.876   5.662   3.651
   13DOPC   NC3  139   8.935   2.145   5.452
   13DOPC   PO4  140   8.914   2.162   5.152
   13DOPC   GL1  141   8.983   2.144   4.851
   13DOPC   GL2  142   8.925   1.963   4.851
   13DOPC   C1A  143   8.985   2.174   4.551
   13DOPC   D2A  144   8.947   2.188   4.252
   13DOPC   C3A  145   8.960   2.117   3.952
   13DOPC   C4A  146   8.979   2.103   3.651
   13DOPC   C1B  147   8.789   1.842   4.551
   13DOPC   D2B  148   8.824   1.763   4.252
   13DOPC   C3B  149   8.847   1.812   3.952
   13DOPC   C4B  150   8.824   1.759   3.651
   14DOPC   NC3  151   7.283   1.845   5.452
   14DOPC   PO4  152   7.284   1.812   5.152
   14DOPC   GL1  153   7.324   1.853   4.851
   14DOPC   GL2  154   7.404   1.933   4.851
   14DOPC   C1A  155   7.317   1.787   4.551
   14DOPC   D2A  156   7.291   1.782   4.252
   14DOPC   C3A  157   7.292   1.772   3.952
   14DOPC   C4A  158   7.306   1.805   3.651
   14DOPC   C1B  159   7.393   2.129   4.551
   14DOPC   D2B  160   7.456   2.180   4.252
   14DOPC   C3B  161   7.464   2.173   3.952
   14DOPC   C4B  162   7.404   2.109   3.651
   15DOPC   NC3  163  15.155   6.454   5.452
   15DOPC   PO4  164  15.118   6.479   5.152
   15DOPC   GL1  165  15.131   6.496   4.851
   15DOPC   GL2  166  15.043   6.601   4.851
   15DOPC   C1A  167  15.122   6.492   4.551
   15DOPC   D2A  168  15.127   6.413   4.252
   15DOPC   C3A  169  15.112   6.489   3.952
   15DOPC   C4A  170  15.201   6.462   3.651
   15DOPC   C1B  171  14.959   6.684   4.551
   15DOPC   D2B  172  14.903   6.721   4.252
   15DOPC   C3B  173  14.927   6.696   3.952
   15DOPC   C4B  174  14.892   6.753   3.651
   16DOPC   NC3  175  10.411   1.829   5.452
   16DOPC   PO4  176  10.404   1.836   5.152
   16DOPC   GL1  177  10.370   1.840   4.851
   16DOPC   GL2  178  10.394   2.001   4.851
   16DOPC   C1A  179  10.395   1.841   4.551
   16DOPC   D2A  180  10.380   1.841   4.252
   16DOPC   C3A  181  10.411   1.813   3.952
   16DOPC   C4A  182  10.432   1.780   3.651
   16DOPC   C1B  183  10.440   2.159   4.551
   16DOPC   D2B  184  10.449   2.143   4.252
   16DOPC   C3B  185  10.476   2.197   3.952
   16DOPC   C4B  186  10.420   2.190   3.651
   17DOPC   NC3  187   9.800   9.626   5.452
   17DOPC   PO4  188   9.796   9.639   5.152
   17DOPC   GL1  189   9.841   9.586   4.851
   17DOPC   GL2  190   9.710   9.674   4.851
   17DOPC   C1A  191   9.833   9.682   4.551
   17DOPC   D2A  192   9.886   9.650   4.252
   17DOPC   C3A  193   9.825   9.623   3.952
   17DOPC   C4A  194   9.887   9.668   3.651
   17DOPC   C1B  195   9.473   9.691   4.551
   17DOPC   D2B  196   9.444   9.709   4.252
   17DOPC   C3B  197   9.474   9.707   3.952
   17DOPC   C4B  198   9.528   9.668   3.651
   18DOPC   NC3  199  13.714   4.281   5.452
   18DOPC   PO4  200  13.697   4.224   5.152
   18DOPC   GL1  201  13.671   4.288   4.851
   18DOPC   GL2  202  13.554   4.261   4.851
   18DOPC   C1A  203  13.699   4.277   4.551
   18DOPC   D2A  204  13.661   4.286   4.252
   18DOPC   C3A  205  13.716   4.247   3.952
   18DOPC   C4A  206  13.665   4.227   3.651
   18DOPC   C1B  207  13.289   4.313   4.551
   18DOPC   D2B  208  13.337   4.350   4.252
   18DOPC   C3B  209  13.380   4.372   3.952
   18DOPC   C4B  210  13.293   4.303   3.651
   19DOPC   NC3  211   6.025   2.810   5.452
   19DOPC   PO4  212   6.035   2.759   5.152
   19DOPC   GL1  213   6.010   2.829   4.851
   19DOPC   GL2  214   5.790   2.754   4.851
   19DOPC   C1A  215   5.949   2.789   4.551
   19DOPC   D2A  216   6.029   2.731   4.252
   19DOPC   C3A  217   6.015   2.780   3.952
   19DOPC   C4A  218   5.950   2.733   3.651
   19DOPC   C1B  219   5.606   2.670   4.551
   19DOPC   D2B  220   5.667   2.691   4.252
   19DOPC   C3B  221   5.618   2.743   3.952
   19DOPC   C4B  222   5.656   2.746   3.651
   20DOPC   NC3  223  11.930   8.727   5.452
   20DOPC   PO4  224  11.958   8.753   5.152
   20DOPC   GL1  225  12.001   8.767   4.851
   20DOPC   GL2  226  11.990   8.859   4.851
   20DOPC   C1A  227  11.960   8.681   4.551
   20DOPC   D2A  228  11.938   8.754   4.252
   20DOPC   C3A  229  12.005   8.687   3.952
   20DOPC   C4A  230  11.964   8.761   3.651
   20DOPC   C1B  231  11.966   9.043   4.551
   20DOPC   D2B  232  11.989   9.105   4.252
   20DOPC   C3B  233  12.034   9.025   3.952
   20DOPC   C4B  234  11.979   9.114   3.651
   21DOPC   NC3  235   0.411   7.490   5.452
   21DOPC   PO4  236   0.411   7.545   5.152
   21DOPC   GL1  237   0.433   7.521   4.851
   21DOPC   GL2  238   0.405   7.380   4.851
   21DOPC   C1A  239   0.442   7.512   4.551
   21DOPC   D2A  240   0.446   7.508   4.252
   21DOPC   C3A  241   0.481   7.571   3.952
   21DOPC   C4A  242   0.404   7.545   3.651
   21DOPC   C1B  243   0.453   7.130   4.551
   21DOPC   D2B  244   0.404   7.213   4.252
   21DOPC   C3B  245   0.444   7.217   3.952
   21DOPC   C4B  246   0.388   7.185   3.651
   22DOPC   NC3  247   7.172   3.601   5.452
   22DOPC   PO4  248   7.154   3.560   5.152
   22DOPC   GL1  249   7.151   3.602   4.851
   22DOPC   GL2  250   7.356   3.496   4.851
   22DOPC   C1A  251   7.165   3.575   4.551
   22DOPC   D2A  252   7.208   3.568   4.252
   22DOPC   C3A  253   7.229   3.634   3.952
   22DOPC   C4A  254   7.209   3.639   3.651
   22DOPC   C1B  255   7.498   3.391   4.551
   22DOPC   D2B  256   7.536   3.453   4.252
   22DOPC   C3B  257   7.507   3.474   3.952
   22DOPC   C4B  258   7.484   3.388   3.651
   23DOPC   NC3  259  14.426   2.639   5.452
   23DOPC   PO4  260  14.385   2.556   5.152
   23DOPC   GL1  261  14.379   2.625   4.851
   23DOPC   GL2  262  14.275   2.713   4.851
   23DOPC   C1A  263  14.430   2.643   4.551
   23DOPC   D2A  264  14.428   2.590   4.252
   23DOPC   C3A  265  14.416   2.643   3.952
   23DOPC   C4A  266  14.393   2.644   3.651
   23DOPC   C1B  267  14.142   2.857   4.551
   23DOPC   D2B  268  14.131   2.885   4.252
   23DOPC   C3B  269  14.131   2.891   3.952
   23DOPC   C4B  270  14.156   2.870   3.651
   24DOPC   NC3  271   1.122   7.467   5.452
   24DOPC   PO4  272   1.095   7.466   5.152
   24DOPC   GL1  273   1.142   7.512   4.851
   24DOPC   GL2  274   1.208   7.325   4.851
   24DOPC   C1A  275   1.162   7.533   4.551
   24DOPC   D2A  276   1.161   7.561   4.252
   24DOPC   C3A  277   1.145   7.534   3.952
   24DOPC   C4A  278   1.103   7.544   3.651
   24DOPC   C1B  279   1.254   7.232   4.551
   24DOPC   D2B  280   1.265   7.179   4.252
   24DOPC   C3B  281   1.275   7.233   3.952
   24DOPC   C4B  282   1.311   7.178   3.651
   25DOPC   NC3  283   7.311   7.156   5.452
   25DOPC   PO4  284   7.330   7.219   5.152
   25DOPC   GL1  285   7.293   7.186   4.851
   25DOPC   GL2  286   7.374   7.402   4.851
   25DOPC   C1A  287   7.273   7.217   4.551
   25DOPC   D2A  288   7.323   7.170   4.252
   25DOPC   C3A  289   7.265   7.194   3.952
   25DOPC   C4A  290   7.258   7.192   3.651
   25DOPC   C1B  291   7.415   7.475   4.551
   25DOPC   D2B  292   7.457   7.567   4.252
   25DOPC   C3B  293   7.466   7.509   3.952
   25DOPC   C4B  294   7.411   7.509   3.651
   26DOPC   NC3  295  17.954   5.132   5.452
   26DOPC   PO4  296  17.988   5.150   5.152
   26DOPC   GL1  297  17.993   5.201   4.851
   26DOPC   GL2  298  18.141   5.021   4.851
   26DOPC   C1A  299  17.980   5.198   4.551
   26DOPC   D2A  300  17.974   5.180   4.252
   26DOPC   C3A  301  17.986   5.146   3.952
   26DOPC   C4A  302  17.960   5.163   3.651
   26DOPC   C1B  303  18.301   4.977   4.551
   26DOPC   D2B  304  18.233   4.948   4.252
   26DOPC   C3B  305  18.261   4.916   3.952
   26DOPC   C4B  306  18.284   4.944   3.651
   27DOPC   NC3  307  18.722   1.213   5.452
   27DOPC   PO4  308  18.756   1.145   5.152
   27DOPC   GL1  309  18.685   1.199   4.851
   27DOPC   GL2  310  18.916   1.226   4.851
   27DOPC   C1A  311  18.672   1.187   4.551
   27DOPC   D2A  312  18.684   1.193   4.252
   27DOPC   C3A  313  18.768   1.141   3.952
   27DOPC   C4A  314  18.771   1.133   3.651
   27DOPC   C1B  315  19.088   1.256   4.551
   27DOPC   D2B  316  19.062   1.237   4.252
   27DOPC   C3B  317  19.108   1.247   3.952
   27DOPC   C4B  318  19.022   1.204   3.651
   28DOPC   NC3  319   4.474   6.589   5.452
   28DOPC   PO4  320   4.447   6.577   5.152
   28DOPC   GL1  321   4.458   6.537   4.851
   28DOPC   GL2  322   4.286   6.600   4.851
   28DOPC   C1A  323   4.410   6.525   4.551
   28DOPC   D2A  324   4.465   6.558   4.252
   28DOPC   C3A  325   4.415   6.524   3.952
   28DOPC   C4A  326   4.430   6.548   3.651
   28DOPC   C1B  327   4.065   6.582   4.551
   28DOPC   D2B  328   4.115   6.661   4.252
   28DOPC   C3B  329   4.057   6.642   3.952
   28DOPC   C4B  330   4.136   6.635   3.651
   29DOPC   NC3  331  12.907   5.133   5.452
   29DOPC   PO4  332  12.904   5.140   5.152
   29DOPC   GL1  333  12.891   5.071   4.851
   29DOPC   GL2  334  12.741   5.019   4.851
   29DOPC   C1A  335  12.889   5.140   4.551
   29DOPC   D2A  336  12.964   5.113   4.252
   29DOPC   C3A  337  12.939   5.079   3.952
   29DOPC   C4A  338  12.869   5.094   3.651
   29DOPC   C1B  339  12.612   5.045   4.551
   29DOPC   D2B  340  12.549   5.010   4.252
   29DOPC   C3B  341  12.531   5.040   3.952
   29DOPC   C4B  342  12.612   4.995   3.651
   30DOPC   NC3  343   2.685   3.313   5.452
   30DOPC   PO4  344   2.675   3.391   5.152
   30DOPC   GL1  345   2.620   3.330   4.851
   30DOPC   GL2  346   2.780   3.526   4.851
   30DOPC   C1A  347   2.703   3.360   4.551
   30DOPC   D2A  348   2.657   3.340   4.252
   30DOPC   C3A  349   2.648   3.396   3.952
   30DOPC   C4A  350   2.676   3.397   3.651
   30DOPC   C1B  351   2.820   3.662   4.551
   30DOPC   D2B  352   2.811   3.687   4.252
   30DOPC   C3B  353   2.857   3.624   3.952
   30DOPC   C4B  354   2.814   3.649   3.651
   31DOPC   NC3  355   0.352   4.421   5.452
   31DOPC   PO4  356   0.275   4.410   5.152
   31DOPC   GL1  357   0.339   4.360   4.851
   31DOPC   GL2  358   0.438   4.288   4.851
   31DOPC   C1A  359   0.259   4.412   4.551
   31DOPC   D2A  360   0.341   4.391   4.252
   31DOPC   C3A  361   0.293   4.401   3.952
   31DOPC   C4A  362   0.289   4.360   3.651
   31DOPC   C1B  363   0.584   4.168   4.551
   31DOPC   D2B  364   0.602   4.204   4.252
   31DOPC   C3B  365   0.613   4.183   3.952
   31DOPC   C4B  366   0.523   4.169   3.651
   32DOPC   NC3  367   3.308   1.974   5.452
   32DOPC   PO4  368   3.365   1.998   5.152
   32DOPC   GL1  369   3.367   1.965   4.851
   32DOPC   GL2  370   3.468   1.934   4.851
   32DOPC   C1A  371   3.326   1.932   4.551
   32DOPC   D2A  372   3.330   1.925   4.252
   32DOPC   C3A  373   3.355   1.961   3.952
   32DOPC   C4A  374   3.298   1.924   3.651
   32DOPC   C1B  375   3.733   1.982   4.551
   32DOPC   D2B  376   3.657   2.002   4.252
   32DOPC   C3B  377   3.671   1.946   3.952
   32DOPC   C4B  378   3.653   2.034   3.651
   33DOPC   NC3  379   8.708   0.474   5.452
   33DOPC   PO4  380   8.724   0.556   5.152
   33DOPC   GL1  381   8.725   0.470   4.851
   33DOPC   GL2  382   8.900   0.388   4.851
   33DOPC   C1A  383   8.700   0.470   4.551
   33DOPC   D2A  384   8.707   0.492   4.252
   33DOPC   C3A  385   8.715   0.475   3.952
   33DOPC   C4A  386   8.703   0.486   3.651
   33DOPC   C1B  387   9.050   0.347   4.551
   33DOPC   D2B  388   9.104   0.372   4.252
   33DOPC   C3B  389   9.038   0.391   3.952
   33DOPC   C4B  390   9.072   0.397   3.651
   34DOPC   NC3  391  10.454   6.417   5.452
   34DOPC   PO4  392  10.425   6.435   5.152
   34DOPC   GL1  393  10.436   6.421   4.851
   34DOPC   GL2  394  10.476   6.573   4.851
   34DOPC   C1A  395  10.380   6.395   4.551
   34DOPC   D2A  396  10.429   6.424   4.252
   34DOPC   C3A  397  10.397   6.426   3.952
   34DOPC   C4A  398  10.453   6.413   3.651
   34DOPC   C1B  399  10.448   6.785   4.551
   34DOPC   D2B  400  10.429   6.813   4.252
   34DOPC   C3B  401  10.480   6.793   3.952
   34DOPC   C4B  402  10.424   6.790   3.651
   35DOPC   NC3  403  11.049   1.845   5.452
   35DOPC   PO4  404  11.089   1.890   5.152
   35DOPC   GL1  405  11.031   1.882   4.851
   35DOPC   GL2  406  11.237   1.947   4.851
   35DOPC   C1A  407  11.086   1.928   4.551
   35DOPC   D2A  408  11.065   1.853   4.252
   35DOPC   C3A  409  11.030   1.843   3.952
   35DOPC   C4A  410  11.071   1.854   3.651
   35DOPC   C1B  411  11.320   2.039   4.551
   35DOPC   D2B  412  11.316   2.075   4.252
   35DOPC   C3B  413  11.362   2.069   3.952
   35DOPC   C4B  414  11.339   2.096   3.651
   36DOPC   NC3  415  17.975   8.052   5.452
   36DOPC   PO4  416  18.000   8.050   5.152
   36DOPC   GL1  417  18.013   7.990   4.851
   36DOPC   GL2  418  18.165   8.104   4.851
   36DOPC   C1A  419  17.931   8.071   4.551
   36DOPC   D2A  420  17.981   8.087   4.252
   36DOPC   C3A  421  18.001   8.089   3.952
   36DOPC   C4A  422  17.964   8.044   3.651
   36DOPC   C1B  423  18.279   8.170   4.551
   36DOPC   D2B  424  18.292   8.171   4.252
   36DOPC   C3B  425  18.326   8.258   3.952
   36DOPC   C4B  426  18.327   8.166   3.651
   37DOPC   NC3  427  17.241   1.341   5.452
   37DOPC   PO4  428  17.210   1.318   5.152
   37DOPC   GL1  429  17.262   1.300   4.851
   37DOPC   GL2  430  17.309   1.229   4.851
   37DOPC   C1A  431  17.272   1.330   4.551
   37DOPC   D2A  432  17.242   1.335   4.252
   37DOPC   C3A  433  17.266   1.373   3.952
   37DOPC   C4A  434  17.210   1.321   3.651
   37DOPC   C1B  435  17.461   1.052   4.551
   37DOPC   D2B  436  17.484   1.085   4.252
   37DOPC   C3B  437  17.489   1.091   3.952
   37DOPC   C4B  438  17.513   1.084   3.651
   38DOPC   NC3  439  14.846   9.572   5.452
   38DOPC   PO4  440  14.863   9.621   5.152
   38DOPC   GL1  441  14.919   9.618   4.851
   38DOPC   GL2  442  15.076   9.693   4.851
   38DOPC   C1A  443  14.872   9.631   4.551
   38DOPC   D2A  444  14.880   9.548   4.252
   38DOPC   C3A  445  14.839   9.624   3.952
   38DOPC   C4A  446  14.867   9.601   3.651
   38DOPC   C1B  447  15.218   9.776   4.551
   38DOPC   D2B  448  15.247   9.686   4.252
   38DOPC   C3B  449  15.234   9.728   3.952
   38DOPC   C4B  450  15.265   9.691   3.651
   39DOPC   NC3  451  15.780   6.418   5.452
   39DOPC   PO4  452  15.852   6.436   5.152
   39DOPC   GL1  453  15.800   6.434   4.851
   39DOPC   GL2  454  15.852   6.610   4.851
   39DOPC   C1A  455  15.872   6.435   4.551
   39DOPC   D2A  456  15.875   6.402   4.252
   39DOPC   C3A  457  15.860   6.398   3.952
   39DOPC   C4A  458  15.827   6.418   3.651
   39DOPC   C1B  459  15.825   6.812   4.551
   39DOPC   D2B  460  15.801   6.776   4.252
   39DOPC   C3B  461  15.860   6.775   3.952
   39DOPC   C4B  462  15.842   6.779   3.651
   40DOPC   NC3  463  18.858   8.737   5.452
   40DOPC   PO4  464  18.828   8.754   5.152
   40DOPC   GL1  465  18.911   8.724   4.851
   40DOPC   GL2  466  18.939   8.858   4.851
   40DOPC   C1A  467  18.829   8.744   4.551
   40DOPC   D2A  468  18.907   8.723   4.252
   40DOPC   C3A  469  18.876   8.687   3.952
   40DOPC   C4A  470  18.830   8.684   3.651
   40DOPC   C1B  471  18.925   9.071   4.551
   40DOPC   D2B  472  18.954   9.086   4.252
   40DOPC   C3B  473  18.877   9.042   3.952
   40DOPC   C4B  474  18.969   9.026   3.651
   41DOPC   NC3  475  17.526   0.312   5.452
   41DOPC   PO4  476  17.532   0.348   5.152
   41DOPC   GL1  477  17.519   0.308   4.851
   41DOPC   GL2  478  17.329   0.478   4.851
   41DOPC   C1A  479  17.482   0.376   4.551
   41DOPC   D2A  480  17.474   0.386   4.252
   41DOPC   C3A  481  17.536   0.337   3.952
   41DOPC   C4A  482  17.472   0.316   3.651
   41DOPC   C1B  483  17.217   0.566   4.551
   41DOPC   D2B  484  17.191   0.554   4.252
   41DOPC   C3B  485  17.198   0.549   3.952
   41DOPC   C4B  486  17.232   0.560   3.651
   42DOPC   NC3  487   0.627   8.269   5.452
   42DOPC   PO4  488   0.572   8.188   5.152
   42DOPC   GL1  489   0.532   8.239   4.851
   42DOPC   GL2  490   0.409   8.084   4.851
   42DOPC   C1A  491   0.611   8.251   4.551
   42DOPC   D2A  492   0.600   8.208   4.252
   42DOPC   C3A  493   0.544   8.266   3.952
   42DOPC   C4A  494   0.549   8.190   3.651
   42DOPC   C1B  495   0.335   7.990   4.551
   42DOPC   D2B  496   0.275   8.037   4.252
   42DOPC   C3B  497   0.275   7.986   3.952
   42DOPC   C4B  498   0.246   7.999   3.651
   43DOPC   NC3  499   1.798   2.022   5.452
   43DOPC   PO4  500   1.795   2.023   5.152
   43DOPC   GL1  501   1.818   2.068   4.851
   43DOPC   GL2  502   2.018   1.982   4.851
   43DOPC   C1A  503   1.839   2.014   4.551
   43DOPC   D2A  504   1.846   2.040   4.252
   43DOPC   C3A  505   1.820   2.040   3.952
   43DOPC   C4A  506   1.801   2.030   3.651
   43DOPC   C1B  507   2.137   1.842   4.551
   43DOPC   D2B  508   2.172   1.856   4.252
   43DOPC   C3B  509   2.111   1.858   3.952
   43DOPC   C4B  510   2.140   1.929   3.651
   44DOPC   NC3  511  12.607   0.546   5.452
   44DOPC   PO4  512  12.572   0.501   5.152
   44DOPC   GL1  513  12.601   0.455   4.851
   44DOPC   GL2  514  12.712   0.475   4.851
   44DOPC   C1A  515  12.588   0.456   4.551
   44DOPC   D2A  516  12.537   0.455   4.252
   44DOPC   C3A  517  12.577   0.507   3.952
   44DOPC   C4A  518  12.539   0.470   3.651
   44DOPC   C1B  519  12.946   0.325   4.551
   44DOPC   D2B  520  12.948   0.390   4.252
   44DOPC   C3B  521  12.897   0.386   3.952
   44DOPC   C4B  522  12.959   0.390   3.651
   45DOPC   NC3  523   6.607   6.718   5.452
   45DOPC   PO4  524   6.633   6.808   5.152
   45DOPC   GL1  525   6.651   6.716   4.851
   45DOPC   GL2  526   6.593   6.560   4.851
   45DOPC   C1A  527   6.618   6.787   4.551
   45DOPC   D2A  528   6.623   6.759   4.252
   45DOPC   C3A  529   6.614   6.762   3.952
   45DOPC   C4A  530   6.650   6.737   3.651
   45DOPC   C1B  531   6.510   6.430   4.551
   45DOPC   D2B  532   6.585   6.459   4.252
   45DOPC   C3B  533   6.546   6.375   3.952
   45DOPC   C4B  534   6.532   6.441   3.651
   46DOPC   NC3  535  12.564   5.722   5.452
   46DOPC   PO4  536  12.562   5.753   5.152
   46DOPC   GL1  537  12.621   5.745   4.851
   46DOPC   GL2  538  12.707   5.831   4.851
   46DOPC   C1A  539  12.599   5.684   4.551
   46DOPC   D2A  540  12.574   5.734   4.252
   46DOPC   C3A  541  12.568   5.681   3.952
   46DOPC   C4A  542  12.616   5.682   3.651
   46DOPC   C1B  543  12.870   5.919   4.551
   46DOPC   D2B  544  12.935   5.940   4.252
   46DOPC   C3B  545  12.942   5.937   3.952
   46DOPC   C4B  546  12.886   5.883   3.651
   47DOPC   NC3  547   7.337   1.054   5.452
   47DOPC   PO4  548   7.360   1.052   5.152
   47DOPC   GL1  549   7.372   1.015   4.851
   47DOPC   GL2  550   7.375   1.186   4.851
   47DOPC   C1A  551   7.293   0.991   4.551
   47DOPC   D2A  552   7.285   1.041   4.252
   47DOPC   C3A  553   7.347   1.026   3.952
   47DOPC   C4A  554   7.298   1.075   3.651
   47DOPC   C1B  555   7.348   1.383   4.551
   47DOPC   D2B  556   7.359   1.375   4.252
   47DOPC   C3B  557   7.369   1.343   3.952
   47DOPC   C4B  558   7.393   1.350   3.651
   48DOPC   NC3  559   6.450   9.529   5.452
   48DOPC   PO4  560   6.465   9.596   5.152
   48DOPC   GL1  561   6.498   9.531   4.851
   48DOPC   GL2  562   6.539   9.680   4.851
   48DOPC   C1A  563   6.495   9.598   4.551
   48DOPC   D2A  564   6.495   9.515   4.252
   48DOPC   C3A  565   6.403   9.509   3.952
   48DOPC   C4A  566   6.478   9.523   3.651
   48DOPC   C1B  567   6.724   9.738   4.551
   48DOPC   D2B  568   6.712   9.732   4.252
   48DOPC   C3B  569   6.734   9.821   3.952
   48DOPC   C4B  570   6.765   9.748   3.651
   49DOPC   NC3  571  14.392   5.107   5.452
   49DOPC   PO4  572  14.391   5.121   5.152
   49DOPC   GL1  573  14.466   5.124   4.851
   49DOPC   GL2  574  14.247   5.000   4.851
   49DOPC   C1A  575  14.464   5.100   4.551
   49DOPC   D2A  576  14.398   5.138   4.252
   49DOPC   C3A  577  14.422   5.177   3.952
   49DOPC   C4A  578  14.401   5.095   3.651
   49DOPC   C1B  579  14.141   4.957   4.551
   49DOPC   D2B  580  14.143   4.934   4.252
   49DOPC   C3B  581  14.112   4.936   3.952
   49DOPC   C4B  582  14.091   4.918   3.651
   50DOPC   NC3  583   3.685   9.698   5.452
   50DOPC   PO4  584   3.672   9.717   5.152
   50DOPC   GL1  585   3.726   9.681   4.851
   50DOPC   GL2  586   3.558   9.666   4.851
   50DOPC   C1A  587   3.677   9.729   4.551
   50DOPC   D2A  588   3.705   9.708   4.252
   50DOPC   C3A  589   3.642   9.696   3.952
   50DOPC   C4A  590   3.658   9.704   3.651
   50DOPC   C1B  591   3.313   9.562   4.551
   50DOPC   D2B  592   3.327   9.584   4.252
   50DOPC   C3B  593   3.349   9.633   3.952
   50DOPC   C4B  594   3.345   9.586   3.651
   51DOPC   NC3  595   9.480   6.688   5.452
   51DOPC   PO4  596   9.453   6.694   5.152
   51DOPC   GL1  597   9.495   6.607   4.851
   51DOPC   GL2  598   9.639   6.553   4.851
   51DOPC   C1A  599   9.484   6.653   4.551
   51DOPC   D2A  600   9.469   6.665   4.252
   51DOPC   C3A  601   9.517   6.690   3.952
   51DOPC   C4A  602   9.479   6.639   3.651
   51DOPC   C1B  603   9.853   6.521   4.551
   51DOPC   D2B  604   9.821   6.498   4.252
   51DOPC   C3B  605   9.851   6.533   3.952
   51DOPC   C4B  606   9.825   6.507   3.651
   52DOPC   NC3  607   1.303   4.110   5.452
   52DOPC   PO4  608   1.298   4.128   5.152
   52DOPC   GL1  609   1.286   4.134   4.851
   52DOPC   GL2  610   1.205   4.286   4.851
   52DOPC   C1A  611   1.292   4.155   4.551
   52DOPC   D2A  612   1.295   4.192   4.252
   52DOPC   C3A  613   1.333   4.136   3.952
   52DOPC   C4A  614   1.369   4.145   3.651
   52DOPC   C1B  615   1.064   4.396   4.551
   52DOPC   D2B  616   1.107   4.448   4.252
   52DOPC   C3B  617   1.109   4.398   3.952
   52DOPC   C4B  618   1.076   4.411   3.651
   53DOPC   NC3  619   4.338   5.190   5.452
   53DOPC   PO4  620   4.317   5.193   5.152
   53DOPC   GL1  621   4.341   5.245   4.851
   53DOPC   GL2  622   4.245   5.029   4.851
   53DOPC   C1A  623   4.327   5.192   4.551
   53DOPC   D2A  624   4.364   5.244   4.252
   53DOPC   C3A  625   4.343   5.173   3.952
   53DOPC   C4A  626   4.365   5.177   3.651
   53DOPC   C1B  627   4.161   4.926   4.551
   53DOPC   D2B  628   4.228   4.886   4.252
   53DOPC   C3B  629   4.179   4.885   3.952
   53DOPC   C4B  630   4.224   4.907   3.651
   54DOPC   NC3  631  17.439   4.937   5.452
   54DOPC   PO4  632  17.425   4.909   5.152
   54DOPC   GL1  633  17.513   4.867   4.851
   54DOPC   GL2  634  17.389   5.026   4.851
   54DOPC   C1A  635  17.462   4.923   4.551
   54DOPC   D2A  636  17.513   4.869   4.252
   54DOPC   C3A  637  17.465   4.935   3.952
   54DOPC   C4A  638  17.490   4.900   3.651
   54DOPC   C1B  639  17.238   5.144   4.551
   54DOPC   D2B  640  17.265   5.147   4.252
   54DOPC   C3B  641  17.250   5.163   3.952
   54DOPC   C4B  642  17.198   5.185   3.651
   55DOPC   NC3  643   8.745   4.176   5.452
   55DOPC   PO4  644   8.721   4.217   5.152
   55DOPC   GL1  645   8.707   4.202   4.851
   55DOPC   GL2  646   8.855   4.239   4.851
   55DOPC   C1A  647   8.689   4.210   4.551
   55DOPC   D2A  648   8.757   4.218   4.252
   55DOPC   C3A  649   8.706   4.172   3.952
   55DOPC   C4A  650   8.722   4.208   3.651
   55DOPC   C1B  651   9.080   4.329   4.551
   55DOPC   D2B  652   9.100   4.304   4.252
   55DOPC   C3B  653   9.054   4.361   3.952
   55DOPC   C4B  654   9.079   4.373   3.651
   56DOPC   NC3  655   7.553   2.646   5.452
   56DOPC   PO4  656   7.489   2.632   5.152
   56DOPC   GL1  657   7.511   2.685   4.851
   56DOPC   GL2  658   7.370   2.777   4.851
   56DOPC   C1A  659   7.543   2.669   4.551
   56DOPC   D2A  660   7.511   2.670   4.252
   56DOPC   C3A  661   7.562   2.660   3.952
   56DOPC   C4A  662   7.569   2.635   3.651
   56DOPC   C1B  663   7.155   2.853   4.551
   56DOPC   D2B  664   7.234   2.789   4.252
   56DOPC   C3B  665   7.171   2.800   3.952
   56DOPC   C4B  666   7.172   2.814   3.651
   57DOPC   NC3  667  12.124   8.096   5.452
   57DOPC   PO4  668  12.190   8.147   5.152
   57DOPC   GL1  669  12.153   8.162   4.851
   57DOPC   GL2  670  11.983   8.132   4.851
   57DOPC   C1A  671  12.170   8.085   4.551
   57DOPC   D2A  672  12.138   8.170   4.252
   57DOPC   C3A  673  12.197   8.144   3.952
   57DOPC   C4A  674  12.196   8.170   3.651
   57DOPC   C1B  675  11.843   8.147   4.551
   57DOPC   D2B  676  11.747   8.155   4.252
   57DOPC   C3B  677  11.823   8.086   3.952
   57DOPC   C4B  678  11.752   8.172   3.651
   58DOPC   NC3  679   3.578   3.297   5.452
   58DOPC   PO4  680   3.564   3.304   5.152
   58DOPC   GL1  681   3.576   3.351   4.851
   58DOPC   GL2  682   3.522   3.547   4.851
   58DOPC   C1A  683   3.553   3.346   4.551
   58DOPC   D2A  684   3.581   3.371   4.252
   58DOPC   C3A  685   3.573   3.305   3.952
   58DOPC   C4A  686   3.564   3.373   3.651
   58DOPC   C1B  687   3.460   3.721   4.551
   58DOPC   D2B  688   3.481   3.680   4.252
   58DOPC   C3B  689   3.527   3.682   3.952
   58DOPC   C4B  690   3.484   3.712   3.651
   59DOPC   NC3  691  16.498   0.297   5.452
   59DOPC   PO4  692  16.418   0.288   5.152
   59DOPC   GL1  693  16.476   0.365   4.851
   59DOPC   GL2  694  16.616   0.449   4.851
   59DOPC   C1A  695  16.420   0.308   4.551
   59DOPC   D2A  696  16.496   0.276   4.252
   59DOPC   C3A  697  16.427   0.328   3.952
   59DOPC   C4A  698  16.446   0.278   3.651
   59DOPC   C1B  699  16.686   0.572   4.551
   59DOPC   D2B  700  16.689   0.589   4.252
   59DOPC   C3B  701  16.717   0.530   3.952
   59DOPC   C4B  702  16.686   0.554   3.651
   60DOPC   NC3  703   7.529   5.071   5.452
   60DOPC   PO4  704   7.501   5.062   5.152
   60DOPC   GL1  705   7.554   5.107   4.851
   60DOPC   GL2  706   7.310   5.049   4.851
   60DOPC   C1A  707   7.560   5.082   4.551
   60DOPC   D2A  708   7.549   5.105   4.252
   60DOPC   C3A  709   7.557   5.046   3.952
   60DOPC   C4A  710   7.573   5.129   3.651
   60DOPC   C1B  711   7.153   5.019   4.551
   60DOPC   D2B  712   7.226   5.046   4.252
   60DOPC   C3B  713   7.197   5.036   3.952
   60DOPC   C4B  714   7.231   5.000   3.651
   61DOPC   NC3  715  18.298   8.954   5.452
   61DOPC   PO4  716  18.245   8.961   5.152
   61DOPC   GL1  717  18.272   8.949   4.851
   61DOPC   GL2  718  18.139   8.897   4.851
   61DOPC   C1A  719  18.256   8.966   4.551
   61DOPC   D2A  720  18.249   8.982   4.252
   61DOPC   C3A  721  18.299   8.943   3.952
   61DOPC   C4A  722  18.287   8.948   3.651
   61DOPC   C1B  723  17.960   8.827   4.551
   61DOPC   D2B  724  18.014   8.788   4.252
   61DOPC   C3B  725  18.013   8.839   3.952
   61DOPC   C4B  726  17.990   8.832   3.651
   62DOPC   NC3  727   0.343   6.665   5.452
   62DOPC   PO4  728   0.334   6.676   5.152
   62DOPC   GL1  729   0.283   6.699   4.851
   62DOPC   GL2  730   0.402   6.541   4.851
   62DOPC   C1A  731   0.326   6.725   4.551
   62DOPC   D2A  732   0.319   6.666   4.252
   62DOPC   C3A  733   0.305   6.677   3.952
   62DOPC   C4A  734   0.255   6.726   3.651
   62DOPC   C1B  735   0.614   6.448   4.551
   62DOPC   D2B  736   0.602   6.429   4.252
   62DOPC   C3B  737   0.568   6.443   3.952
   62DOPC   C4B  738   0.567   6.509   3.651
   63DOPC   NC3  739  12.112   9.786   5.452
   63DOPC   PO4  740  12.073   9.840   5.152
   63DOPC   GL1  741  12.080   9.811   4.851
   63DOPC   GL2  742  12.016   9.700   4.851
   63DOPC   C1A  743  12.096   9.770   4.551
   63DOPC   D2A  744  12.071   9.847   4.252
   63DOPC   C3A  745  12.096   9.786   3.952
   63DOPC   C4A  746  12.087   9.807   3.651
   63DOPC   C1B  747  11.841   9.554   4.551
   63DOPC   D2B  748  11.874   9.529   4.252
   63DOPC   C3B  749  11.841   9.479   3.952
   63DOPC   C4B  750  11.856   9.508   3.651
   64DOPC   NC3  751   9.510   8.140   5.452
   64DOPC   PO4  752   9.455   8.133   5.152
   64DOPC   GL1  753   9.472   8.151   4.851
   64DOPC   GL2  754   9.704   8.139   4.851
   64DOPC   C1A  755   9.504   8.134   4.551
   64DOPC   D2A  756   9.508   8.196   4.252
   64DOPC   C3A  757   9.528   8.154   3.952
   64DOPC   C4A  758   9.517   8.146   3.651
   64DOPC   C1B  759   9.790   8.072   4.551
   64DOPC   D2B  760   9.842   8.074   4.252
   64DOPC   C3B  761   9.810   8.029   3.952
   64DOPC   C4B  762   9.831   8.116   3.651
   65DOPC   NC3  763  13.664   5.839   5.452
   65DOPC   PO4  764  13.661   5.820   5.152
   65DOPC   GL1  765  13.730   5.843   4.851
   65DOPC   GL2  766  13.471   5.864   4.851
   65DOPC   C1A  767  13.730   5.842   4.551
   65DOPC   D2A  768  13.733   5.866   4.252
   65DOPC   C3A  769  13.672   5.801   3.952
   65DOPC   C4A  770  13.645   5.864   3.651
   65DOPC   C1B  771  13.370   5.832   4.551
   65DOPC   D2B  772  13.361   5.762   4.252
   65DOPC   C3B  773  13.339   5.834   3.952
   65DOPC   C4B  774  13.333   5.830   3.651
   66DOPC   NC3  775  15.151   2.552   5.452
   66DOPC   PO4  776  15.135   2.558   5.152
   66DOPC   GL1  777  15.165   2.541   4.851
   66DOPC   GL2  778  15.050   2.707   4.851
   66DOPC   C1A  779  15.119   2.538   4.551
   66DOPC   D2A  780  15.160   2.533   4.252
   66DOPC   C3A  781  15.103   2.604   3.952
   66DOPC   C4A  782  15.114   2.581   3.651
   66DOPC   C1B  783  14.969   2.950   4.551
   66DOPC   D2B  784  14.948   2.894   4.252
   66DOPC   C3B  785  15.023   2.921   3.952
   66DOPC   C4B  786  14.967   2.916   3.651
   67DOPC   NC3  787  15.993   9.575   5.452
   67DOPC   PO4  788  15.971   9.595   5.152
   67DOPC   GL1  789  16.000   9.564   4.851
   67DOPC   GL2  790  15.780   9.632   4.851
   67DOPC   C1A  791  16.028   9.635   4.551
   67DOPC   D2A  792  15.989   9.580   4.252
   67DOPC   C3A  793  16.016   9.552   3.952
   67DOPC   C4A  794  16.027   9.547   3.651
   67DOPC   C1B  795  15.626   9.743   4.551
   67DOPC   D2B  796  15.626   9.722   4.252
   67DOPC   C3B  797  15.651   9.736   3.952
   67DOPC   C4B  798  15.629   9.769   3.651
   68DOPC   NC3  799   2.635   8.722   5.452
   68DOPC   PO4  800   2.614   8.799   5.152
   68DOPC   GL1  801   2.663   8.810   4.851
   68DOPC   GL2  802   2.736   8.906   4.851
   68DOPC   C1A  803   2.584   8.767   4.551
   68DOPC   D2A  804   2.631   8.764   4.252
   68DOPC   C3A  805   2.651   8.754   3.952
   68DOPC   C4A  806   2.630   8.725   3.651
   68DOPC   C1B  807   2.896   8.991   4.551
   68DOPC   D2B  808   2.866   9.032   4.252
   68DOPC   C3B  809   2.843   9.042   3.952
   68DOPC   C4B  810   2.873   9.075   3.651
   69DOPC   NC3  811   6.777   1.291   5.452
   69DOPC   PO4  812   6.707   1.333   5.152
   69DOPC   GL1  813   6.727   1.253   4.851
   69DOPC   GL2  814   6.598   1.223   4.851
   69DOPC   C1A  815   6.700   1.291   4.551
   69DOPC   D2A  816   6.759   1.326   4.252
   69DOPC   C3A  817   6.714   1.259   3.952
   69DOPC   C4A  818   6.784   1.293   3.651
   69DOPC   C1B  819   6.411   1.099   4.551
   69DOPC   D2B  820   6.441   1.107   4.252
   69DOPC   C3B  821   6.395   1.127   3.952
   69DOPC   C4B  822   6.405   1.136   3.651
   70DOPC   NC3  823  12.905   8.210   5.452
   70DOPC   PO4  824  12.882   8.137   5.152
   70DOPC   GL1  825  12.926   8.220   4.851
   70DOPC   GL2  826  12.733   8.112   4.851
   70DOPC   C1A  827  12.901   8.201   4.551
   70DOPC   D2A  828  12.933   8.173   4.252
   70DOPC   C3A  829  12.907   8.227   3.952
   70DOPC   C4A  830  12.920   8.197   3.651
   70DOPC   C1B  831  12.585   8.070   4.551
   70DOPC   D2B  832  12.565   8.107   4.252
   70DOPC   C3B  833  12.539   8.037   3.952
   70DOPC   C4B  834  12.531   8.085   3.651
   71DOPC   NC3  835   5.617   3.602   5.452
   71DOPC   PO4  836   5.601   3.612   5.152
   71DOPC   GL1  837   5.666   3.600   4.851
   71DOPC   GL2  838   5.868   3.558   4.851
   71DOPC   C1A  839   5.664   3.578   4.551
   71DOPC   D2A  840   5.694   3.560   4.252
   71DOPC   C3A  841   5.688   3.513   3.952
   71DOPC   C4A  842   5.622   3.558   3.651
   71DOPC   C1B  843   5.950   3.506   4.551
   71DOPC   D2B  844   5.972   3.453   4.252
   71DOPC   C3B  845   6.017   3.474   3.952
   71DOPC   C4B  846   5.956   3.444   3.651
   72DOPC   NC3  847  14.098   7.243   5.452
   72DOPC   PO4  848  14.157   7.303   5.152
   72DOPC   GL1  849  14.117   7.215   4.851
   72DOPC   GL2  850  14.238   7.345   4.851
   72DOPC   C1A  851  14.095   7.276   4.551
   72DOPC   D2A  852  14.084   7.228   4.252
   72DOPC   C3A  853  14.110   7.221   3.952
   72DOPC   C4A  854  14.169   7.314   3.651
   72DOPC   C1B  855  14.398   7.500   4.551
   72DOPC   D2B  856  14.451   7.483   4.252
   72DOPC   C3B  857  14.407   7.441   3.952
   72DOPC   C4B  858  14.387   7.462   3.651
   73DOPC   NC3  859  10.605   2.857   5.452
   73DOPC   PO4  860  10.620   2.834   5.152
   73DOPC   GL1  861  10.624   2.799   4.851
   73DOPC   GL2  862  10.427   2.702   4.851
   73DOPC   C1A  863  10.591   2.815   4.551
   73DOPC   D2A  864  10.555   2.861   4.252
   73DOPC   C3A  865  10.567   2.817   3.952
   73DOPC   C4A  866  10.566   2.831   3.651
   73DOPC   C1B  867  10.296   2.655   4.551
   73DOPC   D2B  868  10.242   2.675   4.252
   73DOPC   C3B  869  10.299   2.649   3.952
   73DOPC   C4B  870  10.271   2.666   3.651
   74DOPC   NC3  871   4.947   8.248   5.452
   74DOPC   PO4  872   4.977   8.346   5.152
   74DOPC   GL1  873   4.987   8.344   4.851
   74DOPC   GL2  874   5.050   8.095   4.851
   74DOPC   C1A  875   5.010   8.297   4.551
   74DOPC   D2A  876   5.007   8.346   4.252
   74DOPC   C3A  877   5.001   8.285   3.952
   74DOPC   C4A  878   4.959   8.298   3.651
   74DOPC   C1B  879   5.102   7.919   4.551
   74DOPC   D2B  880   5.103   7.972   4.252
   74DOPC   C3B  881   5.061   7.945   3.952
   74DOPC   C4B  882   5.092   7.909   3.651
   75DOPC   NC3  883   7.992   0.501   5.452
   75DOPC   PO4  884   7.972   0.519   5.152
   75DOPC   GL1  885   7.947   0.484   4.851
   75DOPC   GL2  886   8.119   0.478   4.851
   75DOPC   C1A  887   7.966   0.527   4.551
   75DOPC   D2A  888   7.933   0.503   4.252
   75DOPC   C3A  889   7.982   0.498   3.952
   75DOPC   C4A  890   7.958   0.557   3.651
   75DOPC   C1B  891   8.278   0.308   4.551
   75DOPC   D2B  892   8.293   0.364   4.252
   75DOPC   C3B  893   8.264   0.352   3.952
   75DOPC   C4B  894   8.246   0.305   3.651
   76DOPC   NC3  895   5.874   1.016   5.452
   76DOPC   PO4  896   5.945   1.009   5.152
   76DOPC   GL1  897   5.918   1.009   4.851
   76DOPC   GL2  898   5.860   1.192   4.851
   76DOPC   C1A  899   5.933   1.074   4.551
   76DOPC   D2A  900   5.942   1.055   4.252
   76DOPC   C3A  901   5.895   1.061   3.952
   76DOPC   C4A  902   5.884   1.006   3.651
   76DOPC   C1B  903   5.720   1.371   4.551
   76DOPC   D2B  904   5.762   1.341   4.252
   76DOPC   C3B  905   5.740   1.396   3.952
   76DOPC   C4B  906   5.745   1.352   3.651
   77DOPC   NC3  907   7.579   6.550   5.452
   77DOPC   PO4  908   7.494   6.558   5.152
   77DOPC   GL1  909   7.532   6.564   4.851
   77DOPC   GL2  910   7.396   6.625   4.851
   77DOPC   C1A  911   7.510   6.609   4.551
   77DOPC   D2A  912   7.566   6.631   4.252
   77DOPC   C3A  913   7.556   6.591   3.952
   77DOPC   C4A  914   7.568   6.553   3.651
   77DOPC   C1B  915   7.164   6.542   4.551
   77DOPC   D2B  916   7.165   6.547   4.252
   77DOPC   C3B  917   7.148   6.599   3.952
   77DOPC   C4B  918   7.164   6.601   3.651
   78DOPC   NC3  919   0.418   2.912   5.452
   78DOPC   PO4  920   0.393   2.964   5.152
   78DOPC   GL1  921   0.398   2.937   4.851
   78DOPC   GL2  922   0.447   2.722   4.851
   78DOPC   C1A  923   0.437   2.966   4.551
   78DOPC   D2A  924   0.417   2.923   4.252
   78DOPC   C3A  925   0.437   2.907   3.952
   78DOPC   C4A  926   0.378   2.937   3.651
   78DOPC   C1B  927   0.471   2.536   4.551
   78DOPC   D2B  928   0.409   2.551   4.252
   78DOPC   C3B  929   0.427   2.529   3.952
   78DOPC   C4B  930   0.445   2.571   3.651
   79DOPC   NC3  931   9.574   0.631   5.452
   79DOPC   PO4  932   9.624   0.643   5.152
   79DOPC   GL1  933   9.584   0.634   4.851
   79DOPC   GL2  934   9.664   0.470   4.851
   79DOPC   C1A  935   9.579   0.638   4.551
   79DOPC   D2A  936   9.609   0.602   4.252
   79DOPC   C3A  937   9.556   0.635   3.952
   79DOPC   C4A  938   9.591   0.579   3.651
   79DOPC   C1B  939   9.736   0.299   4.551
   79DOPC   D2B  940   9.737   0.259   4.252
   79DOPC   C3B  941   9.720   0.272   3.952
   79DOPC   C4B  942   9.727   0.317   3.651
   80DOPC   NC3  943   1.874   7.539   5.452
   80DOPC   PO4  944   1.855   7.479   5.152
   80DOPC   GL1  945   1.859   7.516   4.851
   80DOPC   GL2  946   1.932   7.337   4.851
   80DOPC   C1A  947   1.887   7.552   4.551
   80DOPC   D2A  948   1.940   7.513   4.252
   80DOPC   C3A  949   1.943   7.543   3.952
   80DOPC   C4A  950   1.878   7.494   3.651
   80DOPC   C1B  951   2.002   7.229   4.551
   80DOPC   D2B  952   2.033   7.193   4.252
   80DOPC   C3B  953   2.002   7.156   3.952
   80DOPC   C4B  954   2.037   7.191   3.651
   81DOPC   NC3  955  19.694   9.073   5.452
   81DOPC   PO4  956  19.688   9.025   5.152
   81DOPC   GL1  957  19.682   9.069   4.851
   81DOPC   GL2  958  19.630   8.921   4.851
   81DOPC   C1A  959  19.678   9.039   4.551
   81DOPC   D2A  960  19.652   9.037   4.252
   81DOPC   C3A  961  19.667   9.039   3.952
   81DOPC   C4A  962  19.663   9.079   3.651
   81DOPC   C1B  963  19.627   8.761   4.551
   81DOPC   D2B  964  19.595   8.767   4.252
   81DOPC   C3B  965  19.672   8.674   3.952
   81DOPC   C4B  966  19.627   8.768   3.651
   82DOPC   NC3  967   2.723   7.207   5.452
   82DOPC   PO4  968   2.816   7.170   5.152
   82DOPC   GL1  969   2.731   7.201   4.851
   82DOPC   GL2  970   2.720   7.324   4.851
   82DOPC   C1A  971   2.811   7.161   4.551
   82DOPC   D2A  972   2.822   7.160   4.252
   82DOPC   C3A  973   2.739   7.162   3.952
   82DOPC   C4A  974   2.753   7.141   3.651
   82DOPC   C1B  975   2.715   7.538   4.551
   82DOPC   D2B  976   2.690   7.514   4.252
   82DOPC   C3B  977   2.666   7.518   3.952
   82DOPC   C4B  978   2.761   7.536   3.651
   83DOPC   NC3  979   3.345   7.396   5.452
   83DOPC   PO4  980   3.286   7.350   5.152
   83DOPC   GL1  981   3.356   7.314   4.851
   83DOPC   GL2  982   3.510   7.355   4.851
   83DOPC   C1A  983   3.285   7.334   4.551
   83DOPC   D2A  984   3.325   7.303   4.252
   83DOPC   C3A  985   3.314   7.359   3.952
   83DOPC   C4A  986   3.329   7.332   3.651
   83DOPC   C1B  987   3.719   7.367   4.551
   83DOPC   D2B  988   3.659   7.329   4.252
   83DOPC   C3B  989   3.642   7.416   3.952
   83DOPC   C4B  990   3.719   7.374   3.651
   84DOPC   NC3  991  18.900   7.917   5.452
   84DOPC   PO4  992  18.934   7.919   5.152
   84DOPC   GL1  993  18.894   7.952   4.851
   84DOPC   GL2  994  18.876   8.108   4.851
   84DOPC   C1A  995  18.957   7.995   4.551
   84DOPC   D2A  996  18.948   7.965   4.252
   84DOPC   C3A  997  18.949   7.954   3.952
   84DOPC   C4A  998  18.920   7.954   3.651
   84DOPC   C1B  999  18.905   8.336   4.551
   84DOPC   D2B 1000  18.816   8.292   4.252
   84DOPC   C3B 1001  18.856   8.252   3.952
   84DOPC   C4B 1002  18.832   8.251   3.651
   85DOPC   NC3 1003  14.102   5.885   5.452
   85DOPC   PO4 1004  14.085   5.844   5.152
   85DOPC   GL1 1005  14.110   5.876   4.851
   85DOPC   GL2 1006  14.310   5.856   4.851
   85DOPC   C1A 1007  14.089   5.848   4.551
   85DOPC   D2A 1008  14.120   5.854   4.252
   85DOPC   C3A 1009  14.089   5.848   3.952
   85DOPC   C4A 1010  14.144   5.913   3.651
   85DOPC   C1B 1011  14.439   5.767   4.551
   85DOPC   D2B 1012  14.492   5.745   4.252
   85DOPC   C3B 1013  14.439   5.749   3.952
   85DOPC   C4B 1014  14.402   5.777   3.651
   86DOPC   NC3 1015   5.008   5.212   5.452
   86DOPC   PO4 1016   5.019   5.268   5.152
   86DOPC   GL1 1017   5.000   5.243   4.851
   86DOPC   GL2 1018   5.041   5.074   4.851
   86DOPC   C1A 1019   5.038   5.207   4.551
   86DOPC   D2A 1020   4.974   5.211   4.252
   86DOPC   C3A 1021   4.988   5.179   3.952
   86DOPC   C4A 1022   5.039   5.195   3.651
   86DOPC   C1B 1023   5.149   4.900   4.551
   86DOPC   D2B 1024   5.082   4.890   4.252
   86DOPC   C3B 1025   5.093   4.876   3.952
   86DOPC   C4B 1026   5.109   4.910   3.651
   87DOPC   NC3 1027   3.376   1.116   5.452
   87DOPC   PO4 1028   3.348   1.064   5.152
   87DOPC   GL1 1029   3.403   1.063   4.851
   87DOPC   GL2 1030   3.482   1.171   4.851
   87DOPC   C1A 1031   3.374   1.107   4.551
   87DOPC   D2A 1032   3.374   1.143   4.252
   87DOPC   C3A 1033   3.326   1.124   3.952
   87DOPC   C4A 1034   3.403   1.052   3.651
   87DOPC   C1B 1035   3.641   1.270   4.551
   87DOPC   D2B 1036   3.663   1.329   4.252
   87DOPC   C3B 1037   3.698   1.265   3.952
   87DOPC   C4B 1038   3.612   1.303   3.651
   88DOPC   NC3 1039   9.772   8.746   5.452
   88DOPC   PO4 1040   9.817   8.713   5.152
   88DOPC   GL1 1041   9.755   8.763   4.851
   88DOPC   GL2 1042   9.655   8.943   4.851
   88DOPC   C1A 1043   9.768   8.789   4.551
   88DOPC   D2A 1044   9.769   8.738   4.252
   88DOPC   C3A 1045   9.781   8.767   3.952
   88DOPC   C4A 1046   9.778   8.796   3.651
   88DOPC   C1B 1047   9.521   9.006   4.551
   88DOPC   D2B 1048   9.555   9.045   4.252
   88DOPC   C3B 1049   9.566   9.041   3.952
   88DOPC   C4B 1050   9.578   9.008   3.651
   89DOPC   NC3 1051  11.233   1.063   5.452
   89DOPC   PO4 1052  11.166   1.018   5.152
   89DOPC   GL1 1053  11.162   1.037   4.851
   89DOPC   GL2 1054  11.200   1.206   4.851
   89DOPC   C1A 1055  11.221   1.061   4.551
   89DOPC   D2A 1056  11.238   0.998   4.252
   89DOPC   C3A 1057  11.216   0.979   3.952
   89DOPC   C4A 1058  11.198   1.021   3.651
   89DOPC   C1B 1059  11.235   1.363   4.551
   89DOPC   D2B 1060  11.190   1.423   4.252
   89DOPC   C3B 1061  11.216   1.408   3.952
   89DOPC   C4B 1062  11.192   1.401   3.651
   90DOPC   NC3 1063  10.570   1.228   5.452
   90DOPC   PO4 1064  10.600   1.219   5.152
   90DOPC   GL1 1065  10.586   1.224   4.851
   90DOPC   GL2 1066  10.446   1.169   4.851
   90DOPC   C1A 1067  10.647   1.221   4.551
   90DOPC   D2A 1068  10.568   1.289   4.252
   90DOPC   C3A 1069  10.637   1.226   3.952
   90DOPC   C4A 1070  10.560   1.251   3.651
   90DOPC   C1B 1071  10.287   1.135   4.551
   90DOPC   D2B 1072  10.270   1.155   4.252
   90DOPC   C3B 1073  10.243   1.161   3.952
   90DOPC   C4B 1074  10.295   1.137   3.651
   91DOPC   NC3 1075   2.117   5.124   5.452
   91DOPC   PO4 1076   2.135   5.091   5.152
   91DOPC   GL1 1077   2.082   5.146   4.851
   91DOPC   GL2 1078   1.985   5.094   4.851
   91DOPC   C1A 1079   2.144   5.101   4.551
   91DOPC   D2A 1080   2.146   5.151   4.252
   91DOPC   C3A 1081   2.105   5.129   3.952
   91DOPC   C4A 1082   2.145   5.089   3.651
   91DOPC   C1B 1083   1.784   4.954   4.551
   91DOPC   D2B 1084   1.804   4.936   4.252
   91DOPC   C3B 1085   1.859   4.922   3.952
   91DOPC   C4B 1086   1.827   4.934   3.651
   92DOPC   NC3 1087   9.001   4.956   5.452
   92DOPC   PO4 1088   9.017   4.968   5.152
   92DOPC   GL1 1089   9.020   4.926   4.851
   92DOPC   GL2 1090   8.897   5.087   4.851
   92DOPC   C1A 1091   9.076   4.963   4.551
   92DOPC   D2A 1092   9.056   4.906   4.252
   92DOPC   C3A 1093   9.058   4.946   3.952
   92DOPC   C4A 1094   9.034   4.963   3.651
   92DOPC   C1B 1095   8.787   5.157   4.551
   92DOPC   D2B 1096   8.816   5.191   4.252
   92DOPC   C3B 1097   8.732   5.195   3.952
   92DOPC   C4B 1098   8.782   5.195   3.651
   93DOPC   NC3 1099   2.728   4.894   5.452
   93DOPC   PO4 1100   2.673   4.922   5.152
   93DOPC   GL1 1101   2.671   4.832   4.851
   93DOPC   GL2 1102   2.788   5.010   4.851
   93DOPC   C1A 1103   2.717   4.845   4.551
   93DOPC   D2A 1104   2.725   4.844   4.252
   93DOPC   C3A 1105   2.718   4.836   3.952
   93DOPC   C4A 1106   2.724   4.831   3.651
   93DOPC   C1B 1107   2.775   5.260   4.551
   93DOPC   D2B 1108   2.805   5.201   4.252
   93DOPC   C3B 1109   2.809   5.196   3.952
   93DOPC   C4B 1110   2.742   5.251   3.651
   94DOPC   NC3 1111   7.482   5.913   5.452
   94DOPC   PO4 1112   7.529   5.960   5.152
   94DOPC   GL1 1113   7.515   5.898   4.851
   94DOPC   GL2 1114   7.389   5.809   4.851
   94DOPC   C1A 1115   7.460   5.975   4.551
   94DOPC   D2A 1116   7.455   5.955   4.252
   94DOPC   C3A 1117   7.450   5.892   3.952
   94DOPC   C4A 1118   7.545   5.890   3.651
   94DOPC   C1B 1119   7.258   5.721   4.551
   94DOPC   D2B 1120   7.227   5.696   4.252
   94DOPC   C3B 1121   7.210   5.734   3.952
   94DOPC   C4B 1122   7.185   5.744   3.651
   95DOPC   NC3 1123   3.676   8.960   5.452
   95DOPC   PO4 1124   3.633   8.986   5.152
   95DOPC   GL1 1125   3.694   8.973   4.851
   95DOPC   GL2 1126   3.480   8.936   4.851
   95DOPC   C1A 1127   3.725   8.986   4.551
   95DOPC   D2A 1128   3.696   8.984   4.252
   95DOPC   C3A 1129   3.699   9.003   3.952
   95DOPC   C4A 1130   3.684   8.938   3.651
   95DOPC   C1B 1131   3.339   8.866   4.551
   95DOPC   D2B 1132   3.342   8.842   4.252
   95DOPC   C3B 1133   3.363   8.798   3.952
   95DOPC   C4B 1134   3.357   8.794   3.651
   96DOPC   NC3 1135   5.235   0.462   5.452
   96DOPC   PO4 1136   5.270   0.499   5.152
   96DOPC   GL1 1137   5.200   0.451   4.851
   96DOPC   GL2 1138   5.098   0.418   4.851
   96DOPC   C1A 1139   5.184   0.494   4.551
   96DOPC   D2A 1140   5.247   0.516   4.252
   96DOPC   C3A 1141   5.205   0.491   3.952
   96DOPC   C4A 1142   5.200   0.500   3.651
   96DOPC   C1B 1143   4.840   0.380   4.551
   96DOPC   D2B 1144   4.851   0.398   4.252
   96DOPC   C3B 1145   4.884   0.398   3.952
   96DOPC   C4B 1146   4.902   0.342   3.651
   97DOPC   NC3 1147   6.664   1.817   5.452
   97DOPC   PO4 1148   6.738   1.839   5.152
   97DOPC   GL1 1149   6.752   1.853   4.851
   97DOPC   GL2 1150   6.636   2.007   4.851
   97DOPC   C1A 1151   6.702   1.836   4.551
   97DOPC   D2A 1152   6.741   1.889   4.252
   97DOPC   C3A 1153   6.699   1.851   3.952
   97DOPC   C4A 1154   6.753   1.854   3.651
   97DOPC   C1B 1155   6.493   2.087   4.551
   97DOPC   D2B 1156   6.426   2.069   4.252
   97DOPC   C3B 1157   6.429   2.088   3.952
   97DOPC   C4B 1158   6.486   2.064   3.651
   98DOPC   NC3 1159  11.312   5.907   5.452
   98DOPC   PO4 1160  11.359   5.940   5.152
   98DOPC   GL1 1161  11.354   5.881   4.851
   98DOPC   GL2 1162  11.188   5.822   4.851
   98DOPC   C1A 1163  11.374   5.918   4.551
   98DOPC   D2A 1164  11.380   5.923   4.252
   98DOPC   C3A 1165  11.374   5.858   3.952
   98DOPC   C4A 1166  11.376   5.944   3.651
   98DOPC   C1B 1167  11.045   5.706   4.551
   98DOPC   D2B 1168  11.002   5.770   4.252
   98DOPC   C3B 1169  11.006   5.778   3.952
   98DOPC   C4B 1170  11.044   5.743   3.651
   99DOPC   NC3 1171   3.456   5.970   5.452
   99DOPC   PO4 1172   3.484   6.033   5.152
   99DOPC   GL1 1173   3.460   5.974   4.851
   99DOPC   GL2 1174   3.469   5.804   4.851
   99DOPC   C1A 1175   3.488   5.996   4.551
   99DOPC   D2A 1176   3.457   5.954   4.252
   99DOPC   C3A 1177   3.524   5.966   3.952
   99DOPC   C4A 1178   3.468   5.951   3.651
   99DOPC   C1B 1179   3.503   5.689   4.551
   99DOPC   D2B 1180   3.525   5.613   4.252
   99DOPC   C3B 1181   3.542   5.624   3.952
   99DOPC   C4B 1182   3.488   5.660   3.651
  100DOPC   NC3 1183   5.149   5.684   5.452
  100DOPC   PO4 1184   5.066   5.675   5.152
  100DOPC   GL1 1185   5.119   5.632   4.851
  100DOPC   GL2 1186   5.049   5.859   4.851
  100DOPC   C1A 1187   5.081   5.661   4.551
  100DOPC   D2A 1188   5.098   5.686   4.252
  100DOPC   C3A 1189   5.122   5.644   3.952
  100DOPC   C4A 1190   5.153   5.666   3.651
  100DOPC   C1B 1191   4.967   5.976   4.551
  100DOPC   D2B 1192   4.985   6.008   4.252
  100DOPC   C3B 1193   5.021   6.030   3.952
  100DOPC   C4B 1194   4.997   5.956   3.651
  101DOPC   NC3 1195  14.886   4.214   5.452
  101DOPC   PO4 1196  14.896   4.174   5.152
  101DOPC   GL1 1197  14.916   4.211   4.851
  101DOPC   GL2 1198  15.088   4.251   4.851
  101DOPC   C1A 1199  14.903   4.217   4.551
  101DOPC   D2A 1200  14.887   4.188   4.252
  101DOPC   C3A 1201  14.886   4.199   3.952
  101DOPC   C4A 1202  14.838   4.212   3.651
  101DOPC   C1B 1203  15.256   4.380   4.551
  101DOPC   D2B 1204  15.242   4.341   4.252
  101DOPC   C3B 1205  15.231   4.350   3.952
  101DOPC   C4B 1206  15.224   4.294   3.651
  102DOPC   NC3 1207   5.770   7.231   5.452
  102DOPC   PO4 1208   5.767   7.196   5.152
  102DOPC   GL1 1209   5.746   7.166   4.851
  102DOPC   GL2 1210   5.834   7.319   4.851
  102DOPC   C1A 1211   5.721   7.215   4.551
  102DOPC   D2A 1212   5.760   7.178   4.252
  102DOPC   C3A 1213   5.751   7.179   3.952
  102DOPC   C4A 1214   5.770   7.226   3.651
  102DOPC   C1B 1215   5.929   7.523   4.551
  102DOPC   D2B 1216   5.854   7.519   4.252
  102DOPC   C3B 1217   5.889   7.555   3.952
  102DOPC   C4B 1218   5.923   7.512   3.651
  103DOPC   NC3 1219  13.585   3.629   5.452
  103DOPC   PO4 1220  13.624   3.640   5.152
  103DOPC   GL1 1221  13.653   3.644   4.851
  103DOPC   GL2 1222  13.547   3.485   4.851
  103DOPC   C1A 1223  13.594   3.647   4.551
  103DOPC   D2A 1224  13.604   3.661   4.252
  103DOPC   C3A 1225  13.641   3.621   3.952
  103DOPC   C4A 1226  13.658   3.675   3.651
  103DOPC   C1B 1227  13.449   3.378   4.551
  103DOPC   D2B 1228  13.363   3.406   4.252
  103DOPC   C3B 1229  13.455   3.379   3.952
  103DOPC   C4B 1230  13.396   3.342   3.651
  104DOPC   NC3 1231   3.392   0.298   5.452
  104DOPC   PO4 1232   3.403   0.254   5.152
  104DOPC   GL1 1233   3.449   0.245   4.851
  104DOPC   GL2 1234   3.494   0.484   4.851
  104DOPC   C1A 1235   3.393   0.292   4.551
  104DOPC   D2A 1236   3.457   0.327   4.252
  104DOPC   C3A 1237   3.381   0.260   3.952
  104DOPC   C4A 1238   3.403   0.265   3.651
  104DOPC   C1B 1239   3.612   0.573   4.551
  104DOPC   D2B 1240   3.643   0.566   4.252
  104DOPC   C3B 1241   3.624   0.566   3.952
  104DOPC   C4B 1242   3.598   0.564   3.651
  105DOPC   NC3 1243   6.790   2.730   5.452
  105DOPC   PO4 1244   6.751   2.665   5.152
  105DOPC   GL1 1245   6.744   2.649   4.851
  105DOPC   GL2 1246   6.548   2.707   4.851
  105DOPC   C1A 1247   6.722   2.650   4.551
  105DOPC   D2A 1248   6.793   2.705   4.252
  105DOPC   C3A 1249   6.732   2.692   3.952
  105DOPC   C4A 1250   6.746   2.663   3.651
  105DOPC   C1B 1251   6.462   2.847   4.551
  105DOPC   D2B 1252   6.422   2.757   4.252
  105DOPC   C3B 1253   6.414   2.842   3.952
  105DOPC   C4B 1254   6.431   2.796   3.651
  106DOPC   NC3 1255  16.561   1.326   5.452
  106DOPC   PO4 1256  16.489   1.399   5.152
  106DOPC   GL1 1257  16.489   1.409   4.851
  106DOPC   GL2 1258  16.575   1.211   4.851
  106DOPC   C1A 1259  16.545   1.339   4.551
  106DOPC   D2A 1260  16.488   1.363   4.252
  106DOPC   C3A 1261  16.556   1.350   3.952
  106DOPC   C4A 1262  16.500   1.405   3.651
  106DOPC   C1B 1263  16.594   1.033   4.551
  106DOPC   D2B 1264  16.665   1.079   4.252
  106DOPC   C3B 1265  16.652   1.016   3.952
  106DOPC   C4B 1266  16.601   1.017   3.651
  107DOPC   NC3 1267  15.009   0.310   5.452
  107DOPC   PO4 1268  14.959   0.318   5.152
  107DOPC   GL1 1269  14.963   0.263   4.851
  107DOPC   GL2 1270  15.010   0.470   4.851
  107DOPC   C1A 1271  15.007   0.232   4.551
  107DOPC   D2A 1272  14.944   0.272   4.252
  107DOPC   C3A 1273  14.950   0.286   3.952
  107DOPC   C4A 1274  15.015   0.230   3.651
  107DOPC   C1B 1275  15.177   0.551   4.551
  107DOPC   D2B 1276  15.165   0.612   4.252
  107DOPC   C3B 1277  15.095   0.612   3.952
  107DOPC   C4B 1278  15.159   0.639   3.651
  108DOPC   NC3 1279   2.112   9.768   5.452
  108DOPC   PO4 1280   2.033   9.773   5.152
  108DOPC   GL1 1281   2.078   9.852   4.851
  108DOPC   GL2 1282   1.957   9.708   4.851
  108DOPC   C1A 1283   2.110   9.858   4.551
  108DOPC   D2A 1284   2.085   9.810   4.252
  108DOPC   C3A 1285   2.095   9.787   3.952
  108DOPC   C4A 1286   2.059   9.815   3.651
  108DOPC   C1B 1287   1.898   9.570   4.551
  108DOPC   D2B 1288   1.879   9.534   4.252
  108DOPC   C3B 1289   1.838   9.497   3.952
  108DOPC   C4B 1290   1.843   9.486   3.651
  109DOPC   NC3 1291   1.138   2.886   5.452
  109DOPC   PO4 1292   1.224   2.908   5.152
  109DOPC   GL1 1293   1.142   2.877   4.851
  109DOPC   GL2 1294   1.175   2.698   4.851
  109DOPC   C1A 1295   1.146   2.949   4.551
  109DOPC   D2A 1296   1.187   2.967   4.252
  109DOPC   C3A 1297   1.221   2.945   3.952
  109DOPC   C4A 1298   1.171   2.964   3.651
  109DOPC   C1B 1299   1.213   2.601   4.551
  109DOPC   D2B 1300   1.192   2.579   4.252
  109DOPC   C3B 1301   1.206   2.587   3.952
  109DOPC   C4B 1302   1.206   2.553   3.651
  110DOPC   NC3 1303  15.003   5.941   5.452
  110DOPC   PO4 1304  14.934   6.015   5.152
  110DOPC   GL1 1305  15.016   5.959   4.851
  110DOPC   GL2 1306  15.022   5.797   4.851
  110DOPC   C1A 1307  15.002   5.942   4.551
  110DOPC   D2A 1308  14.988   5.985   4.252
  110DOPC   C3A 1309  14.926   5.998   3.952
  110DOPC   C4A 1310  14.979   5.934   3.651
  110DOPC   C1B 1311  15.075   5.658   4.551
  110DOPC   D2B 1312  15.103   5.688   4.252
  110DOPC   C3B 1313  15.158   5.633   3.952
  110DOPC   C4B 1314  15.125   5.641   3.651
  111DOPC   NC3 1315   7.992   4.354   5.452
  111DOPC   PO4 1316   7.971   4.406   5.152
  111DOPC   GL1 1317   7.944   4.403   4.851
  111DOPC   GL2 1318   8.145   4.290   4.851
  111DOPC   C1A 1319   7.950   4.381   4.551
  111DOPC   D2A 1320   8.013   4.353   4.252
  111DOPC   C3A 1321   8.015   4.333   3.952
  111DOPC   C4A 1322   7.958   4.324   3.651
  111DOPC   C1B 1323   8.315   4.217   4.551
  111DOPC   D2B 1324   8.314   4.184   4.252
  111DOPC   C3B 1325   8.332   4.209   3.952
  111DOPC   C4B 1326   8.284   4.170   3.651
  112DOPC   NC3 1327   5.072   9.536   5.452
  112DOPC   PO4 1328   5.056   9.515   5.152
  112DOPC   GL1 1329   5.095   9.526   4.851
  112DOPC   GL2 1330   5.018   9.645   4.851
  112DOPC   C1A 1331   5.069   9.441   4.551
  112DOPC   D2A 1332   5.078   9.489   4.252
  112DOPC   C3A 1333   5.089   9.538   3.952
  112DOPC   C4A 1334   5.057   9.475   3.651
  112DOPC   C1B 1335   5.049   9.823   4.551
  112DOPC   D2B 1336   4.997   9.842   4.252
  112DOPC   C3B 1337   5.044   9.833   3.952
  112DOPC   C4B 1338   5.007   9.802   3.651
  113DOPC   NC3 1339  11.373   2.838   5.452
  113DOPC   PO4 1340  11.361   2.873   5.152
  113DOPC   GL1 1341  11.381   2.812   4.851
  113DOPC   GL2 1342  11.252   2.736   4.851
  113DOPC   C1A 1343  11.292   2.827   4.551
  113DOPC   D2A 1344  11.346   2.861   4.252
  113DOPC   C3A 1345  11.376   2.887   3.952
  113DOPC   C4A 1346  11.307   2.847   3.651
  113DOPC   C1B 1347  11.105   2.616   4.551
  113DOPC   D2B 1348  11.057   2.641   4.252
  113DOPC   C3B 1349  11.055   2.632   3.952
  113DOPC   C4B 1350  11.113   2.603   3.651
  114DOPC   NC3 1351   0.349   5.226   5.452
  114DOPC   PO4 1352   0.355   5.247   5.152
  114DOPC   GL1 1353   0.348   5.197   4.851
  114DOPC   GL2 1354   0.424   5.005   4.851
  114DOPC   C1A 1355   0.416   5.186   4.551
  114DOPC   D2A 1356   0.360   5.207   4.252
  114DOPC   C3A 1357   0.380   5.241   3.952
  114DOPC   C4A 1358   0.407   5.233   3.651
  114DOPC   C1B 1359   0.466   4.888   4.551
  114DOPC   D2B 1360   0.549   4.844   4.252
  114DOPC   C3B 1361   0.473   4.837   3.952
  114DOPC   C4B 1362   0.546   4.895   3.651
  115DOPC   NC3 1363  17.480   9.566   5.452
  115DOPC   PO4 1364  17.499   9.580   5.152
  115DOPC   GL1 1365  17.434   9.572   4.851
  115DOPC   GL2 1366  17.406   9.679   4.851
  115DOPC   C1A 1367  17.485   9.581   4.551
  115DOPC   D2A 1368  17.510   9.486   4.252
  115DOPC   C3A 1369  17.512   9.538   3.952
  115DOPC   C4A 1370  17.468   9.509   3.651
  115DOPC   C1B 1371  17.283   9.822   4.551
  115DOPC   D2B 1372  17.203   9.771   4.252
  115DOPC   C3B 1373  17.269   9.823   3.952
  115DOPC   C4B 1374  17.243   9.774   3.651
  116DOPC   NC3 1375   4.476   3.552   5.452
  116DOPC   PO4 1376   4.469   3.504   5.152
  116DOPC   GL1 1377   4.464   3.534   4.851
  116DOPC   GL2 1378   4.289   3.539   4.851
  116DOPC   C1A 1379   4.444   3.483   4.551
  116DOPC   D2A 1380   4.501   3.526   4.252
  116DOPC   C3A 1381   4.459   3.532   3.952
  116DOPC   C4A 1382   4.477   3.521   3.651
  116DOPC   C1B 1383   4.100   3.452   4.551
  116DOPC   D2B 1384   4.063   3.519   4.252
  116DOPC   C3B 1385   4.054   3.516   3.952
  116DOPC   C4B 1386   4.101   3.485   3.651
  117DOPC   NC3 1387  18.755   7.322   5.452
  117DOPC   PO4 1388  18.684   7.342   5.152
  117DOPC   GL1 1389  18.676   7.378   4.851
  117DOPC   GL2 1390  18.867   7.349   4.851
  117DOPC   C1A 1391  18.729   7.325   4.551
  117DOPC   D2A 1392  18.735   7.365   4.252
  117DOPC   C3A 1393  18.676   7.319   3.952
  117DOPC   C4A 1394  18.671   7.372   3.651
  117DOPC   C1B 1395  19.084   7.350   4.551
  117DOPC   D2B 1396  19.083   7.342   4.252
  117DOPC   C3B 1397  19.086   7.392   3.952
  117DOPC   C4B 1398  19.089   7.344   3.651
  118DOPC   NC3 1399  15.906   9.045   5.452
  118DOPC   PO4 1400  15.926   9.085   5.152
  118DOPC   GL1 1401  15.959   9.050   4.851
  118DOPC   GL2 1402  15.782   8.935   4.851
  118DOPC   C1A 1403  15.968   9.035   4.551
  118DOPC   D2A 1404  15.908   9.071   4.252
  118DOPC   C3A 1405  15.895   9.002   3.952
  118DOPC   C4A 1406  15.903   9.016   3.651
  118DOPC   C1B 1407  15.676   8.758   4.551
  118DOPC   D2B 1408  15.684   8.803   4.252
  118DOPC   C3B 1409  15.747   8.752   3.952
  118DOPC   C4B 1410  15.664   8.804   3.651
  119DOPC   NC3 1411   4.243   0.220   5.452
  119DOPC   PO4 1412   4.249   0.296   5.152
  119DOPC   GL1 1413   4.313   0.301   4.851
  119DOPC   GL2 1414   4.308   0.410   4.851
  119DOPC   C1A 1415   4.240   0.208   4.551
  119DOPC   D2A 1416   4.257   0.236   4.252
  119DOPC   C3A 1417   4.251   0.306   3.952
  119DOPC   C4A 1418   4.284   0.258   3.651
  119DOPC   C1B 1419   4.346   0.610   4.551
  119DOPC   D2B 1420   4.264   0.608   4.252
  119DOPC   C3B 1421   4.292   0.576   3.952
  119DOPC   C4B 1422   4.333   0.628   3.651
  120DOPC   NC3 1423  14.153   9.584   5.452
  120DOPC   PO4 1424  14.129   9.555   5.152
  120DOPC   GL1 1425  14.121   9.529   4.851
  120DOPC   GL2 1426  14.257   9.639   4.851
  120DOPC   C1A 1427  14.166   9.509   4.551
  120DOPC   D2A 1428  14.186   9.593   4.252
  120DOPC   C3A 1429  14.134   9.562   3.952
  120DOPC   C4A 1430  14.152   9.563   3.651
  120DOPC   C1B 1431  14.381   9.744   4.551
  120DOPC   D2B 1432  14.364   9.824   4.252
  120DOPC   C3B 1433  14.386   9.826   3.952
  120DOPC   C4B 1434  14.445   9.737   3.651
  121DOPC   NC3 1435   6.777   4.180   5.452
  121DOPC   PO4 1436   6.750   4.172   5.152
  121DOPC   GL1 1437   6.765   4.199   4.851
  121DOPC   GL2 1438   6.603   4.304   4.851
  121DOPC   C1A 1439   6.702   4.133   4.551
  121DOPC   D2A 1440   6.701   4.207   4.252
  121DOPC   C3A 1441   6.695   4.130   3.952
  121DOPC   C4A 1442   6.745   4.197   3.651
  121DOPC   C1B 1443   6.465   4.423   4.551
  121DOPC   D2B 1444   6.413   4.405   4.252
  121DOPC   C3B 1445   6.424   4.343   3.952
  121DOPC   C4B 1446   6.421   4.361   3.651
  122DOPC   NC3 1447   6.800   5.841   5.452
  122DOPC   PO4 1448   6.775   5.782   5.152
  122DOPC   GL1 1449   6.816   5.772   4.851
  122DOPC   GL2 1450   6.635   5.861   4.851
  122DOPC   C1A 1451   6.721   5.779   4.551
  122DOPC   D2A 1452   6.738   5.777   4.252
  122DOPC   C3A 1453   6.735   5.760   3.952
  122DOPC   C4A 1454   6.811   5.790   3.651
  122DOPC   C1B 1455   6.373   5.808   4.551
  122DOPC   D2B 1456   6.400   5.802   4.252
  122DOPC   C3B 1457   6.430   5.886   3.952
  122DOPC   C4B 1458   6.444   5.831   3.651
  123DOPC   NC3 1459  14.492   1.894   5.452
  123DOPC   PO4 1460  14.416   1.965   5.152
  123DOPC   GL1 1461  14.410   1.965   4.851
  123DOPC   GL2 1462  14.264   2.009   4.851
  123DOPC   C1A 1463  14.443   1.980   4.551
  123DOPC   D2A 1464  14.465   1.989   4.252
  123DOPC   C3A 1465  14.421   1.941   3.952
  123DOPC   C4A 1466  14.457   1.914   3.651
  123DOPC   C1B 1467  14.092   2.034   4.551
  123DOPC   D2B 1468  14.077   1.985   4.252
  123DOPC   C3B 1469  14.119   1.958   3.952
  123DOPC   C4B 1470  14.145   1.972   3.651
  124DOPC   NC3 1471  14.959   2.154   5.452
  124DOPC   PO4 1472  14.955   2.097   5.152
  124DOPC   GL1 1473  14.909   2.117   4.851
  124DOPC   GL2 1474  15.092   1.990   4.851
  124DOPC   C1A 1475  14.978   2.151   4.551
  124DOPC   D2A 1476  14.963   2.088   4.252
  124DOPC   C3A 1477  14.921   2.132   3.952
  124DOPC   C4A 1478  14.956   2.072   3.651
  124DOPC   C1B 1479  15.138   1.802   4.551
  124DOPC   D2B 1480  15.115   1.843   4.252
  124DOPC   C3B 1481  15.135   1.843   3.952
  124DOPC   C4B 1482  15.203   1.836   3.651
  125DOPC   NC3 1483  11.301   6.776   5.452
  125DOPC   PO4 1484  11.217   6.767   5.152
  125DOPC   GL1 1485  11.301   6.750   4.851
  125DOPC   GL2 1486  11.238   6.632   4.851
  125DOPC   C1A 1487  11.295   6.734   4.551
  125DOPC   D2A 1488  11.271   6.731   4.252
  125DOPC   C3A 1489  11.288   6.755   3.952
  125DOPC   C4A 1490  11.217   6.728   3.651
  125DOPC   C1B 1491  11.181   6.402   4.551
  125DOPC   D2B 1492  11.128   6.460   4.252
  125DOPC   C3B 1493  11.170   6.455   3.952
  125DOPC   C4B 1494  11.111   6.405   3.651
  126DOPC   NC3 1495  11.255   7.170   5.452
  126DOPC   PO4 1496  11.334   7.199   5.152
  126DOPC   GL1 1497  11.292   7.215   4.851
  126DOPC   GL2 1498  11.222   7.309   4.851
  126DOPC   C1A 1499  11.258   7.187   4.551
  126DOPC   D2A 1500  11.287   7.253   4.252
  126DOPC   C3A 1501  11.274   7.178   3.952
  126DOPC   C4A 1502  11.319   7.240   3.651
  126DOPC   C1B 1503  11.140   7.532   4.551
  126DOPC   D2B 1504  11.130   7.509   4.252
  126DOPC   C3B 1505  11.064   7.484   3.952
  126DOPC   C4B 1506  11.137   7.465   3.651
  127DOPC   NC3 1507  17.504   8.109   5.452
  127DOPC   PO4 1508  17.550   8.122   5.152
  127DOPC   GL1 1509  17.577   8.085   4.851
  127DOPC   GL2 1510  17.396   8.108   4.851
  127DOPC   C1A 1511  17.549   8.156   4.551
  127DOPC   D2A 1512  17.583   8.086   4.252
  127DOPC   C3A 1513  17.562   8.085   3.952
  127DOPC   C4A 1514  17.515   8.114   3.651
  127DOPC   C1B 1515  17.214   8.131   4.551
  127DOPC   D2B 1516  17.192   8.161   4.252
  127DOPC   C3B 1517  17.203   8.183   3.952
  127DOPC   C4B 1518  17.140   8.168   3.651
  128DOPC   NC3 1519  12.747   3.290   5.452
  128DOPC   PO4 1520  12.823   3.372   5.152
  128DOPC   GL1 1521  12.767   3.318   4.851
  128DOPC   GL2 1522  12.721   3.482   4.851
  128DOPC   C1A 1523  12.795   3.311   4.551
  128DOPC   D2A 1524  12.790   3.305   4.252
  128DOPC   C3A 1525  12.797   3.317   3.952
  128DOPC   C4A 1526  12.760   3.354   3.651
  128DOPC   C1B 1527  12.718   3.696   4.551
  128DOPC   D2B 1528  12.757   3.679   4.252
  128DOPC   C3B 1529  12.728   3.736   3.952
  128DOPC   C4B 1530  12.707   3.711   3.651
  129DOPC   NC3 1531  16.581   9.889   5.452
  129DOPC   PO4 1532  16.596   9.819   5.152
  129DOPC   GL1 1533  16.539   9.804   4.851
  129DOPC   GL2 1534  16.545   9.683   4.851
  129DOPC   C1A 1535  16.598   9.832   4.551
  129DOPC   D2A 1536  16.573   9.797   4.252
  129DOPC   C3A 1537  16.513   9.812   3.952
  129DOPC   C4A 1538  16.587   9.827   3.651
  129DOPC   C1B 1539  16.594   9.505   4.551
  129DOPC   D2B 1540  16.576   9.524   4.252
  129DOPC   C3B 1541  16.668   9.518   3.952
  129DOPC   C4B 1542  16.577   9.487   3.651
  130DOPC   NC3 1543   8.085   3.290   5.452
  130DOPC   PO4 1544   8.057   3.321   5.152
  130DOPC   GL1 1545   8.075   3.379   4.851
  130DOPC   GL2 1546   8.089   3.539   4.851
  130DOPC   C1A 1547   8.115   3.314   4.551
  130DOPC   D2A 1548   8.093   3.318   4.252
  130DOPC   C3A 1549   8.060   3.377   3.952
  130DOPC   C4A 1550   8.058   3.308   3.651
  130DOPC   C1B 1551   8.174   3.729   4.551
  130DOPC   D2B 1552   8.149   3.690   4.252
  130DOPC   C3B 1553   8.190   3.649   3.952
  130DOPC   C4B 1554   8.145   3.654   3.651
  131DOPC   NC3 1555  16.710   8.046   5.452
  131DOPC   PO4 1556  16.748   7.966   5.152
  131DOPC   GL1 1557  16.718   8.018   4.851
  131DOPC   GL2 1558  16.576   8.086   4.851
  131DOPC   C1A 1559  16.717   7.983   4.551
  131DOPC   D2A 1560  16.728   8.010   4.252
  131DOPC   C3A 1561  16.764   7.984   3.952
  131DOPC   C4A 1562  16.671   8.018   3.651
  131DOPC   C1B 1563  16.475   8.279   4.551
  131DOPC   D2B 1564  16.476   8.243   4.252
  131DOPC   C3B 1565  16.424   8.270   3.952
  131DOPC   C4B 1566  16.480   8.263   3.651
  132DOPC   NC3 1567  18.281   1.139   5.452
  132DOPC   PO4 1568  18.323   1.157   5.152
  132DOPC   GL1 1569  18.289   1.217   4.851
  132DOPC   GL2 1570  18.125   1.156   4.851
  132DOPC   C1A 1571  18.299   1.137   4.551
  132DOPC   D2A 1572  18.345   1.198   4.252
  132DOPC   C3A 1573  18.332   1.202   3.952
  132DOPC   C4A 1574  18.275   1.222   3.651
  132DOPC   C1B 1575  17.965   1.245   4.551
  132DOPC   D2B 1576  17.903   1.182   4.252
  132DOPC   C3B 1577  17.997   1.233   3.952
  132DOPC   C4B 1578  17.946   1.199   3.651
  133DOPC   NC3 1579  17.293   2.928   5.452
  133DOPC   PO4 1580  17.296   2.904   5.152
  133DOPC   GL1 1581  17.305   2.889   4.851
  133DOPC   GL2 1582  17.320   2.696   4.851
  133DOPC   C1A 1583  17.264   2.878   4.551
  133DOPC   D2A 1584  17.327   2.890   4.252
  133DOPC   C3A 1585  17.261   2.888   3.952
  133DOPC   C4A 1586  17.333   2.892   3.651
  133DOPC   C1B 1587  17.385   2.606   4.551
  133DOPC   D2B 1588  17.450   2.543   4.252
  133DOPC   C3B 1589  17.404   2.588   3.952
  133DOPC   C4B 1590  17.406   2.600   3.651
  134DOPC   NC3 1591  16.660   4.110   5.452
  134DOPC   PO4 1592  16.639   4.107   5.152
  134DOPC   GL1 1593  16.668   4.148   4.851
  134DOPC   GL2 1594  16.590   4.242   4.851
  134DOPC   C1A 1595  16.685   4.064   4.551
  134DOPC   D2A 1596  16.666   4.117   4.252
  134DOPC   C3A 1597  16.669   4.159   3.952
  134DOPC   C4A 1598  16.643   4.067   3.651
  134DOPC   C1B 1599  16.491   4.461   4.551
  134DOPC   D2B 1600  16.528   4.491   4.252
  134DOPC   C3B 1601  16.509   4.451   3.952
  134DOPC   C4B 1602  16.573   4.420   3.651
  135DOPC   NC3 1603   2.662   1.386   5.452
  135DOPC   PO4 1604   2.641   1.332   5.152
  135DOPC   GL1 1605   2.631   1.362   4.851
  135DOPC   GL2 1606   2.752   1.184   4.851
  135DOPC   C1A 1607   2.684   1.357   4.551
  135DOPC   D2A 1608   2.631   1.331   4.252
  135DOPC   C3A 1609   2.628   1.345   3.952
  135DOPC   C4A 1610   2.701   1.418   3.651
  135DOPC   C1B 1611   2.841   1.075   4.551
  135DOPC   D2B 1612   2.764   1.033   4.252
  135DOPC   C3B 1613   2.764   1.048   3.952
  135DOPC   C4B 1614   2.821   1.079   3.651
  136DOPC   NC3 1615  14.273   9.064   5.452
  136DOPC   PO4 1616  14.213   9.120   5.152
  136DOPC   GL1 1617  14.261   9.077   4.851
  136DOPC   GL2 1618  14.302   8.946   4.851
  136DOPC   C1A 1619  14.236   9.053   4.551
  136DOPC   D2A 1620  14.249   9.035   4.252
  136DOPC   C3A 1621  14.196   9.083   3.952
  136DOPC   C4A 1622  14.235   9.058   3.651
  136DOPC   C1B 1623  14.292   8.703   4.551
  136DOPC   D2B 1624  14.278   8.721   4.252
  136DOPC   C3B 1625  14.326   8.740   3.952
  136DOPC   C4B 1626  14.305   8.746   3.651
  137DOPC   NC3 1627  14.951   7.991   5.452
  137DOPC   PO4 1628  14.949   8.013   5.152
  137DOPC   GL1 1629  14.912   8.055   4.851
  137DOPC   GL2 1630  15.098   8.117   4.851
  137DOPC   C1A 1631  14.939   8.025   4.551
  137DOPC   D2A 1632  14.877   8.013   4.252
  137DOPC   C3A 1633  14.954   8.040   3.952
  137DOPC   C4A 1634  14.919   8.002   3.651
  137DOPC   C1B 1635  15.198   8.252   4.551
  137DOPC   D2B 1636  15.168   8.202   4.252
  137DOPC   C3B 1637  15.148   8.221   3.952
  137DOPC   C4B 1638  15.176   8.279   3.651
  138DOPC   NC3 1639  17.572   5.771   5.452
  138DOPC   PO4 1640  17.486   5.726   5.152
  138DOPC   GL1 1641  17.513   5.747   4.851
  138DOPC   GL2 1642  17.329   5.827   4.851
  138DOPC   C1A 1643  17.558   5.736   4.551
  138DOPC   D2A 1644  17.500   5.801   4.252
  138DOPC   C3A 1645  17.496   5.738   3.952
  138DOPC   C4A 1646  17.492   5.764   3.651
  138DOPC   C1B 1647  17.137   5.836   4.551
  138DOPC   D2B 1648  17.172   5.825   4.252
  138DOPC   C3B 1649  17.137   5.832   3.952
  138DOPC   C4B 1650  17.185   5.879   3.651
  139DOPC   NC3 1651  19.474   5.000   5.452
  139DOPC   PO4 1652  19.531   5.002   5.152
  139DOPC   GL1 1653  19.498   5.012   4.851
  139DOPC   GL2 1654  19.661   5.057   4.851
  139DOPC   C1A 1655  19.449   4.970   4.551
  139DOPC   D2A 1656  19.507   5.052   4.252
  139DOPC   C3A 1657  19.447   5.016   3.952
  139DOPC   C4A 1658  19.513   5.023   3.651
  139DOPC   C1B 1659  19.821   5.085   4.551
  139DOPC   D2B 1660  19.888   5.052   4.252
  139DOPC   C3B 1661  19.811   5.065   3.952
  139DOPC   C4B 1662  19.840   5.091   3.651
  140DOPC   NC3 1663  12.608   1.145   5.452
  140DOPC   PO4 1664  12.582   1.167   5.152
  140DOPC   GL1 1665  12.617   1.185   4.851
  140DOPC   GL2 1666  12.774   1.227   4.851
  140DOPC   C1A 1667  12.570   1.178   4.551
  140DOPC   D2A 1668  12.565   1.179   4.252
  140DOPC   C3A 1669  12.602   1.152   3.952
  140DOPC   C4A 1670  12.565   1.109   3.651
  140DOPC   C1B 1671  12.864   1.213   4.551
  140DOPC   D2B 1672  12.928   1.281   4.252
  140DOPC   C3B 1673  12.937   1.284   3.952
  140DOPC   C4B 1674  12.903   1.231   3.651
  141DOPC   NC3 1675   5.098   6.771   5.452
  141DOPC   PO4 1676   5.116   6.697   5.152
  141DOPC   GL1 1677   5.130   6.759   4.851
  141DOPC   GL2 1678   5.042   6.595   4.851
  141DOPC   C1A 1679   5.150   6.712   4.551
  141DOPC   D2A 1680   5.111   6.757   4.252
  141DOPC   C3A 1681   5.149   6.773   3.952
  141DOPC   C4A 1682   5.090   6.741   3.651
  141DOPC   C1B 1683   5.014   6.449   4.551
  141DOPC   D2B 1684   4.963   6.423   4.252
  141DOPC   C3B 1685   5.005   6.409   3.952
  141DOPC   C4B 1686   4.977   6.424   3.651
  142DOPC   NC3 1687  10.298   7.476   5.452
  142DOPC   PO4 1688  10.328   7.433   5.152
  142DOPC   GL1 1689  10.330   7.446   4.851
  142DOPC   GL2 1690  10.409   7.313   4.851
  142DOPC   C1A 1691  10.314   7.465   4.551
  142DOPC   D2A 1692  10.330   7.500   4.252
  142DOPC   C3A 1693  10.333   7.436   3.952
  142DOPC   C4A 1694  10.337   7.459   3.651
  142DOPC   C1B 1695  10.558   7.267   4.551
  142DOPC   D2B 1696  10.597   7.248   4.252
  142DOPC   C3B 1697  10.556   7.288   3.952
  142DOPC   C4B 1698  10.604   7.251   3.651
  143DOPC   NC3 1699   8.703   8.903   5.452
  143DOPC   PO4 1700   8.759   8.976   5.152
  143DOPC   GL1 1701   8.764   8.978   4.851
  143DOPC   GL2 1702   8.934   8.934   4.851
  143DOPC   C1A 1703   8.706   8.958   4.551
  143DOPC   D2A 1704   8.736   8.922   4.252
  143DOPC   C3A 1705   8.755   8.941   3.952
  143DOPC   C4A 1706   8.733   8.928   3.651
  143DOPC   C1B 1707   9.117   8.805   4.551
  143DOPC   D2B 1708   9.101   8.871   4.252
  143DOPC   C3B 1709   9.031   8.836   3.952
  143DOPC   C4B 1710   9.105   8.806   3.651
  144DOPC   NC3 1711  19.819   9.540   5.452
  144DOPC   PO4 1712  19.753   9.559   5.152
  144DOPC   GL1 1713  19.822   9.483   4.851
  144DOPC   GL2 1714  19.714   9.710   4.851
  144DOPC   C1A 1715  19.773   9.536   4.551
  144DOPC   D2A 1716  19.834   9.513   4.252
  144DOPC   C3A 1717  19.806   9.512   3.952
  144DOPC   C4A 1718  19.801   9.514   3.651
  144DOPC   C1B 1719  19.574   9.773   4.551
  144DOPC   D2B 1720  19.590   9.814   4.252
  144DOPC   C3B 1721  19.532   9.780   3.952
  144DOPC   C4B 1722  19.594   9.789   3.651
  145DOPC   NC3 1723  16.688   7.230   5.452
  145DOPC   PO4 1724  16.711   7.288   5.152
  145DOPC   GL1 1725  16.761   7.214   4.851
  145DOPC   GL2 1726  16.624   7.357   4.851
  145DOPC   C1A 1727  16.720   7.296   4.551
  145DOPC   D2A 1728  16.719   7.253   4.252
  145DOPC   C3A 1729  16.757   7.207   3.952
  145DOPC   C4A 1730  16.704   7.208   3.651
  145DOPC   C1B 1731  16.414   7.494   4.551
  145DOPC   D2B 1732  16.397   7.451   4.252
  145DOPC   C3B 1733  16.407   7.468   3.952
  145DOPC   C4B 1734  16.473   7.414   3.651
  146DOPC   NC3 1735   2.839   1.827   5.452
  146DOPC   PO4 1736   2.864   1.887   5.152
  146DOPC   GL1 1737   2.841   1.827   4.851
  146DOPC   GL2 1738   2.702   1.948   4.851
  146DOPC   C1A 1739   2.885   1.845   4.551
  146DOPC   D2A 1740   2.822   1.863   4.252
  146DOPC   C3A 1741   2.903   1.836   3.952
  146DOPC   C4A 1742   2.850   1.836   3.651
  146DOPC   C1B 1743   2.646   2.092   4.551
  146DOPC   D2B 1744   2.625   2.088   4.252
  146DOPC   C3B 1745   2.637   2.086   3.952
  146DOPC   C4B 1746   2.591   2.110   3.651
  147DOPC   NC3 1747  19.007   4.419   5.452
  147DOPC   PO4 1748  19.036   4.402   5.152
  147DOPC   GL1 1749  19.039   4.408   4.851
  147DOPC   GL2 1750  18.914   4.310   4.851
  147DOPC   C1A 1751  18.995   4.415   4.551
  147DOPC   D2A 1752  19.037   4.427   4.252
  147DOPC   C3A 1753  19.077   4.405   3.952
  147DOPC   C4A 1754  19.012   4.356   3.651
  147DOPC   C1B 1755  18.723   4.231   4.551
  147DOPC   D2B 1756  18.726   4.212   4.252
  147DOPC   C3B 1757  18.744   4.163   3.952
  147DOPC   C4B 1758  18.770   4.173   3.651
  148DOPC   NC3 1759  17.948   2.063   5.452
  148DOPC   PO4 1760  17.972   2.123   5.152
  148DOPC   GL1 1761  18.012   2.042   4.851
  148DOPC   GL2 1762  18.168   1.991   4.851
  148DOPC   C1A 1763  18.017   2.040   4.551
  148DOPC   D2A 1764  18.028   2.127   4.252
  148DOPC   C3A 1765  17.956   2.074   3.952
  148DOPC   C4A 1766  18.032   2.067   3.651
  148DOPC   C1B 1767  18.257   1.872   4.551
  148DOPC   D2B 1768  18.296   1.873   4.252
  148DOPC   C3B 1769  18.250   1.915   3.952
  148DOPC   C4B 1770  18.279   1.894   3.651
  149DOPC   NC3 1771  19.736   7.245   5.452
  149DOPC   PO4 1772  19.745   7.172   5.152
  149DOPC   GL1 1773  19.749   7.201   4.851
  149DOPC   GL2 1774  19.639   7.334   4.851
  149DOPC   C1A 1775  19.782   7.236   4.551
  149DOPC   D2A 1776  19.722   7.200   4.252
  149DOPC   C3A 1777  19.711   7.210   3.952
  149DOPC   C4A 1778  19.756   7.191   3.651
  149DOPC   C1B 1779  19.592   7.472   4.551
  149DOPC   D2B 1780  19.547   7.559   4.252
  149DOPC   C3B 1781  19.631   7.549   3.952
  149DOPC   C4B 1782  19.605   7.472   3.651
  150DOPC   NC3 1783  12.615   2.042   5.452
  150DOPC   PO4 1784  12.533   2.042   5.152
  150DOPC   GL1 1785  12.571   2.059   4.851
  150DOPC   GL2 1786  12.774   2.005   4.851
  150DOPC   C1A 1787  12.525   2.001   4.551
  150DOPC   D2A 1788  12.614   2.061   4.252
  150DOPC   C3A 1789  12.527   2.077   3.952
  150DOPC   C4A 1790  12.567   2.023   3.651
  150DOPC   C1B 1791  12.878   1.945   4.551
  150DOPC   D2B 1792  12.898   1.915   4.252
  150DOPC   C3B 1793  12.928   1.883   3.952
  150DOPC   C4B 1794  12.892   1.883   3.651
  151DOPC   NC3 1795  14.363   4.157   5.452
  151DOPC   PO4 1796  14.339   4.182   5.152
  151DOPC   GL1 1797  14.432   4.115   4.851
  151DOPC   GL2 1798  14.306   4.291   4.851
  151DOPC   C1A 1799  14.434   4.098   4.551
  151DOPC   D2A 1800  14.429   4.161   4.252
  151DOPC   C3A 1801  14.369   4.120   3.952
  151DOPC   C4A 1802  14.428   4.093   3.651
  151DOPC   C1B 1803  14.133   4.473   4.551
  151DOPC   D2B 1804  14.165   4.443   4.252
  151DOPC   C3B 1805  14.192   4.386   3.952
  151DOPC   C4B 1806  14.145   4.440   3.651
  152DOPC   NC3 1807   2.904   4.235   5.452
  152DOPC   PO4 1808   2.845   4.235   5.152
  152DOPC   GL1 1809   2.929   4.200   4.851
  152DOPC   GL2 1810   2.750   4.266   4.851
  152DOPC   C1A 1811   2.899   4.215   4.551
  152DOPC   D2A 1812   2.934   4.225   4.252
  152DOPC   C3A 1813   2.935   4.230   3.952
  152DOPC   C4A 1814   2.850   4.196   3.651
  152DOPC   C1B 1815   2.568   4.333   4.551
  152DOPC   D2B 1816   2.571   4.352   4.252
  152DOPC   C3B 1817   2.637   4.353   3.952
  152DOPC   C4B 1818   2.618   4.380   3.651
  153DOPC   NC3 1819  14.150   8.146   5.452
  153DOPC   PO4 1820  14.101   8.207   5.152
  153DOPC   GL1 1821  14.141   8.151   4.851
  153DOPC   GL2 1822  14.328   8.086   4.851
  153DOPC   C1A 1823  14.150   8.145   4.551
  153DOPC   D2A 1824  14.100   8.148   4.252
  153DOPC   C3A 1825  14.126   8.231   3.952
  153DOPC   C4A 1826  14.149   8.231   3.651
  153DOPC   C1B 1827  14.471   8.036   4.551
  153DOPC   D2B 1828  14.420   8.105   4.252
  153DOPC   C3B 1829  14.452   8.113   3.952
  153DOPC   C4B 1830  14.430   8.070   3.651
  154DOPC   NC3 1831   6.664   7.256   5.452
  154DOPC   PO4 1832   6.718   7.205   5.152
  154DOPC   GL1 1833   6.740   7.196   4.851
  154DOPC   GL2 1834   6.576   7.351   4.851
  154DOPC   C1A 1835   6.715   7.173   4.551
  154DOPC   D2A 1836   6.689   7.250   4.252
  154DOPC   C3A 1837   6.673   7.206   3.952
  154DOPC   C4A 1838   6.664   7.176   3.651
  154DOPC   C1B 1839   6.431   7.492   4.551
  154DOPC   D2B 1840   6.461   7.547   4.252
  154DOPC   C3B 1841   6.496   7.522   3.952
  154DOPC   C4B 1842   6.472   7.460   3.651
  155DOPC   NC3 1843   5.964   0.527   5.452
  155DOPC   PO4 1844   5.944   0.513   5.152
  155DOPC   GL1 1845   5.975   0.514   4.851
  155DOPC   GL2 1846   5.837   0.476   4.851
  155DOPC   C1A 1847   6.018   0.492   4.551
  155DOPC   D2A 1848   5.947   0.531   4.252
  155DOPC   C3A 1849   5.975   0.463   3.952
  155DOPC   C4A 1850   5.989   0.488   3.651
  155DOPC   C1B 1851   5.610   0.429   4.551
  155DOPC   D2B 1852   5.675   0.435   4.252
  155DOPC   C3B 1853   5.696   0.349   3.952
  155DOPC   C4B 1854   5.656   0.349   3.651
  156DOPC   NC3 1855  16.783   3.507   5.452
  156DOPC   PO4 1856  16.808   3.481   5.152
  156DOPC   GL1 1857  16.803   3.565   4.851
  156DOPC   GL2 1858  16.554   3.494   4.851
  156DOPC   C1A 1859  16.781   3.525   4.551
  156DOPC   D2A 1860  16.809   3.574   4.252
  156DOPC   C3A 1861  16.749   3.533   3.952
  156DOPC   C4A 1862  16.731   3.521   3.651
  156DOPC   C1B 1863  16.423   3.483   4.551
  156DOPC   D2B 1864  16.395   3.542   4.252
  156DOPC   C3B 1865  16.396   3.505   3.952
  156DOPC   C4B 1866  16.460   3.506   3.651
  157DOPC   NC3 1867  12.103   4.161   5.452
  157DOPC   PO4 1868  12.154   4.153   5.152
  157DOPC   GL1 1869  12.175   4.171   4.851
  157DOPC   GL2 1870  11.967   4.238   4.851
  157DOPC   C1A 1871  12.140   4.206   4.551
  157DOPC   D2A 1872  12.135   4.198   4.252
  157DOPC   C3A 1873  12.097   4.151   3.952
  157DOPC   C4A 1874  12.171   4.244   3.651
  157DOPC   C1B 1875  11.861   4.329   4.551
  157DOPC   D2B 1876  11.849   4.386   4.252
  157DOPC   C3B 1877  11.848   4.337   3.952
  157DOPC   C4B 1878  11.856   4.368   3.651
  158DOPC   NC3 1879  10.255   8.832   5.452
  158DOPC   PO4 1880  10.331   8.784   5.152
  158DOPC   GL1 1881  10.275   8.846   4.851
  158DOPC   GL2 1882  10.473   8.923   4.851
  158DOPC   C1A 1883  10.320   8.839   4.551
  158DOPC   D2A 1884  10.309   8.781   4.252
  158DOPC   C3A 1885  10.305   8.790   3.952
  158DOPC   C4A 1886  10.275   8.789   3.651
  158DOPC   C1B 1887  10.564   8.978   4.551
  158DOPC   D2B 1888  10.628   9.015   4.252
  158DOPC   C3B 1889  10.535   8.968   3.952
  158DOPC   C4B 1890  10.598   9.030   3.651
  159DOPC   NC3 1891  16.458   4.970   5.452
  159DOPC   PO4 1892  16.425   4.958   5.152
  159DOPC   GL1 1893  16.439   4.911   4.851
  159DOPC   GL2 1894  16.570   5.009   4.851
  159DOPC   C1A 1895  16.443   4.975   4.551
  159DOPC   D2A 1896  16.447   4.964   4.252
  159DOPC   C3A 1897  16.431   4.943   3.952
  159DOPC   C4A 1898  16.448   4.964   3.651
  159DOPC   C1B 1899  16.733   5.170   4.551
  159DOPC   D2B 1900  16.737   5.150   4.252
  159DOPC   C3B 1901  16.753   5.208   3.952
  159DOPC   C4B 1902  16.683   5.142   3.651
  160DOPC   NC3 1903   2.149   6.535   5.452
  160DOPC   PO4 1904   2.156   6.548   5.152
  160DOPC   GL1 1905   2.194   6.526   4.851
  160DOPC   GL2 1906   2.002   6.595   4.851
  160DOPC   C1A 1907   2.182   6.619   4.551
  160DOPC   D2A 1908   2.184   6.534   4.252
  160DOPC   C3A 1909   2.199   6.529   3.952
  160DOPC   C4A 1910   2.197   6.593   3.651
  160DOPC   C1B 1911   1.786   6.639   4.551
  160DOPC   D2B 1912   1.762   6.616   4.252
  160DOPC   C3B 1913   1.836   6.557   3.952
  160DOPC   C4B 1914   1.774   6.644   3.651
  161DOPC   NC3 1915  11.420   8.196   5.452
  161DOPC   PO4 1916  11.412   8.125   5.152
  161DOPC   GL1 1917  11.339   8.167   4.851
  161DOPC   GL2 1918  11.202   8.093   4.851
  161DOPC   C1A 1919  11.360   8.159   4.551
  161DOPC   D2A 1920  11.361   8.177   4.252
  161DOPC   C3A 1921  11.345   8.160   3.952
  161DOPC   C4A 1922  11.341   8.210   3.651
  161DOPC   C1B 1923  11.070   8.100   4.551
  161DOPC   D2B 1924  11.017   8.039   4.252
  161DOPC   C3B 1925  10.999   8.051   3.952
  161DOPC   C4B 1926  11.038   8.122   3.651
  162DOPC   NC3 1927  12.123   1.889   5.452
  162DOPC   PO4 1928  12.106   1.920   5.152
  162DOPC   GL1 1929  12.077   1.832   4.851
  162DOPC   GL2 1930  11.948   1.971   4.851
  162DOPC   C1A 1931  12.095   1.881   4.551
  162DOPC   D2A 1932  12.080   1.859   4.252
  162DOPC   C3A 1933  12.103   1.906   3.952
  162DOPC   C4A 1934  12.169   1.853   3.651
  162DOPC   C1B 1935  11.800   2.079   4.551
  162DOPC   D2B 1936  11.869   2.068   4.252
  162DOPC   C3B 1937  11.826   2.093   3.952
  162DOPC   C4B 1938  11.865   2.048   3.651
  163DOPC   NC3 1939  12.635   4.378   5.452
  163DOPC   PO4 1940  12.660   4.433   5.152
  163DOPC   GL1 1941  12.645   4.389   4.851
  163DOPC   GL2 1942  12.751   4.269   4.851
  163DOPC   C1A 1943  12.665   4.424   4.551
  163DOPC   D2A 1944  12.616   4.391   4.252
  163DOPC   C3A 1945  12.656   4.422   3.952
  163DOPC   C4A 1946  12.626   4.362   3.651
  163DOPC   C1B 1947  12.846   4.199   4.551
  163DOPC   D2B 1948  12.876   4.152   4.252
  163DOPC   C3B 1949  12.911   4.137   3.952
  163DOPC   C4B 1950  12.890   4.196   3.651
  164DOPC   NC3 1951   3.628   6.664   5.452
  164DOPC   PO4 1952   3.677   6.676   5.152
  164DOPC   GL1 1953   3.600   6.667   4.851
  164DOPC   GL2 1954   3.521   6.616   4.851
  164DOPC   C1A 1955   3.683   6.717   4.551
  164DOPC   D2A 1956   3.653   6.729   4.252
  164DOPC   C3A 1957   3.676   6.719   3.952
  164DOPC   C4A 1958   3.693   6.734   3.651
  164DOPC   C1B 1959   3.342   6.518   4.551
  164DOPC   D2B 1960   3.391   6.431   4.252
  164DOPC   C3B 1961   3.412   6.504   3.952
  164DOPC   C4B 1962   3.381   6.435   3.651
  165DOPC   NC3 1963  12.645   9.548   5.452
  165DOPC   PO4 1964  12.634   9.524   5.152
  165DOPC   GL1 1965  12.597   9.485   4.851
  165DOPC   GL2 1966  12.758   9.690   4.851
  165DOPC   C1A 1967  12.607   9.563   4.551
  165DOPC   D2A 1968  12.583   9.544   4.252
  165DOPC   C3A 1969  12.626   9.578   3.952
  165DOPC   C4A 1970  12.664   9.519   3.651
  165DOPC   C1B 1971  12.857   9.805   4.551
  165DOPC   D2B 1972  12.889   9.754   4.252
  165DOPC   C3B 1973  12.846   9.811   3.952
  165DOPC   C4B 1974  12.853   9.828   3.651
  166DOPC   NC3 1975  19.088   0.505   5.452
  166DOPC   PO4 1976  19.049   0.484   5.152
  166DOPC   GL1 1977  19.113   0.516   4.851
  166DOPC   GL2 1978  18.890   0.464   4.851
  166DOPC   C1A 1979  19.091   0.527   4.551
  166DOPC   D2A 1980  19.038   0.508   4.252
  166DOPC   C3A 1981  19.071   0.461   3.952
  166DOPC   C4A 1982  19.080   0.451   3.651
  166DOPC   C1B 1983  18.720   0.357   4.551
  166DOPC   D2B 1984  18.736   0.374   4.252
  166DOPC   C3B 1985  18.758   0.345   3.952
  166DOPC   C4B 1986  18.726   0.377   3.651
  167DOPC   NC3 1987   9.660   1.338   5.452
  167DOPC   PO4 1988   9.705   1.342   5.152
  167DOPC   GL1 1989   9.678   1.395   4.851
  167DOPC   GL2 1990   9.683   1.200   4.851
  167DOPC   C1A 1991   9.684   1.368   4.551
  167DOPC   D2A 1992   9.692   1.404   4.252
  167DOPC   C3A 1993   9.628   1.362   3.952
  167DOPC   C4A 1994   9.705   1.402   3.651
  167DOPC   C1B 1995   9.617   1.023   4.551
  167DOPC   D2B 1996   9.670   1.048   4.252
  167DOPC   C3B 1997   9.641   1.030   3.952
  167DOPC   C4B 1998   9.673   1.001   3.651
  168DOPC   NC3 1999  13.671   8.060   5.452
  168DOPC   PO4 2000  13.695   8.033   5.152
  168DOPC   GL1 2001  13.696   8.063   4.851
  168DOPC   GL2 2002  13.552   8.139   4.851
  168DOPC   C1A 2003  13.701   7.992   4.551
  168DOPC   D2A 2004  13.685   8.057   4.252
  168DOPC   C3A 2005  13.608   7.993   3.952
  168DOPC   C4A 2006  13.643   7.987   3.651
  168DOPC   C1B 2007  13.379   8.232   4.551
  168DOPC   D2B 2008  13.362   8.264   4.252
  168DOPC   C3B 2009  13.376   8.196   3.952
  168DOPC   C4B 2010  13.387   8.233   3.651
  169DOPC   NC3 2011  15.877   7.475   5.452
  169DOPC   PO4 2012  15.850   7.492   5.152
  169DOPC   GL1 2013  15.895   7.498   4.851
  169DOPC   GL2 2014  15.857   7.356   4.851
  169DOPC   C1A 2015  15.937   7.514   4.551
  169DOPC   D2A 2016  15.921   7.524   4.252
  169DOPC   C3A 2017  15.884   7.473   3.952
  169DOPC   C4A 2018  15.883   7.542   3.651
  169DOPC   C1B 2019  15.740   7.212   4.551
  169DOPC   D2B 2020  15.712   7.179   4.252
  169DOPC   C3B 2021  15.704   7.242   3.952
  169DOPC   C4B 2022  15.721   7.229   3.651
  170DOPC   NC3 2023  17.162   8.951   5.452
  170DOPC   PO4 2024  17.226   8.892   5.152
  170DOPC   GL1 2025  17.218   8.917   4.851
  170DOPC   GL2 2026  17.343   8.905   4.851
  170DOPC   C1A 2027  17.186   8.965   4.551
  170DOPC   D2A 2028  17.132   8.952   4.252
  170DOPC   C3A 2029  17.191   8.927   3.952
  170DOPC   C4A 2030  17.212   8.957   3.651
  170DOPC   C1B 2031  17.522   8.870   4.551
  170DOPC   D2B 2032  17.509   8.868   4.252
  170DOPC   C3B 2033  17.575   8.905   3.952
  170DOPC   C4B 2034  17.550   8.906   3.651
  171DOPC   NC3 2035   3.696   4.355   5.452
  171DOPC   PO4 2036   3.637   4.412   5.152
  171DOPC   GL1 2037   3.693   4.399   4.851
  171DOPC   GL2 2038   3.521   4.314   4.851
  171DOPC   C1A 2039   3.646   4.321   4.551
  171DOPC   D2A 2040   3.622   4.330   4.252
  171DOPC   C3A 2041   3.687   4.414   3.952
  171DOPC   C4A 2042   3.697   4.329   3.651
  171DOPC   C1B 2043   3.329   4.196   4.551
  171DOPC   D2B 2044   3.390   4.175   4.252
  171DOPC   C3B 2045   3.372   4.181   3.952
  171DOPC   C4B 2046   3.317   4.238   3.651
  172DOPC   NC3 2047   5.698   9.759   5.452
  172DOPC   PO4 2048   5.700   9.780   5.152
  172DOPC   GL1 2049   5.669   9.841   4.851
  172DOPC   GL2 2050   5.772   9.699   4.851
  172DOPC   C1A 2051   5.669   9.802   4.551
  172DOPC   D2A 2052   5.687   9.800   4.252
  172DOPC   C3A 2053   5.686   9.808   3.952
  172DOPC   C4A 2054   5.674   9.786   3.651
  172DOPC   C1B 2055   5.954   9.514   4.551
  172DOPC   D2B 2056   5.910   9.540   4.252
  172DOPC   C3B 2057   5.906   9.480   3.952
  172DOPC   C4B 2058   5.934   9.480   3.651
  173DOPC   NC3 2059  18.175   3.646   5.452
  173DOPC   PO4 2060  18.133   3.718   5.152
  173DOPC   GL1 2061  18.196   3.676   4.851
  173DOPC   GL2 2062  18.110   3.503   4.851
  173DOPC   C1A 2063  18.184   3.712   4.551
  173DOPC   D2A 2064  18.187   3.693   4.252
  173DOPC   C3A 2065  18.220   3.635   3.952
  173DOPC   C4A 2066  18.207   3.706   3.651
  173DOPC   C1B 2067  18.057   3.339   4.551
  173DOPC   D2B 2068  18.058   3.378   4.252
  173DOPC   C3B 2069  18.130   3.340   3.952
  173DOPC   C4B 2070  18.053   3.378   3.651
  174DOPC   NC3 2071   8.134   9.023   5.452
  174DOPC   PO4 2072   8.123   9.032   5.152
  174DOPC   GL1 2073   8.110   9.030   4.851
  174DOPC   GL2 2074   8.139   8.946   4.851
  174DOPC   C1A 2075   8.069   9.087   4.551
  174DOPC   D2A 2076   8.075   9.042   4.252
  174DOPC   C3A 2077   8.133   9.074   3.952
  174DOPC   C4A 2078   8.051   9.102   3.651
  174DOPC   C1B 2079   8.161   8.740   4.551
  174DOPC   D2B 2080   8.205   8.673   4.252
  174DOPC   C3B 2081   8.193   8.702   3.952
  174DOPC   C4B 2082   8.204   8.676   3.651
  175DOPC   NC3 2083   2.554   5.866   5.452
  175DOPC   PO4 2084   2.613   5.874   5.152
  175DOPC   GL1 2085   2.580   5.870   4.851
  175DOPC   GL2 2086   2.723   5.838   4.851
  175DOPC   C1A 2087   2.611   5.900   4.551
  175DOPC   D2A 2088   2.625   5.920   4.252
  175DOPC   C3A 2089   2.573   5.928   3.952
  175DOPC   C4A 2090   2.559   5.859   3.651
  175DOPC   C1B 2091   2.863   5.724   4.551
  175DOPC   D2B 2092   2.898   5.736   4.252
  175DOPC   C3B 2093   2.952   5.730   3.952
  175DOPC   C4B 2094   2.870   5.756   3.651
  176DOPC   NC3 2095  18.718   6.495   5.452
  176DOPC   PO4 2096  18.759   6.565   5.152
  176DOPC   GL1 2097  18.701   6.549   4.851
  176DOPC   GL2 2098  18.864   6.632   4.851
  176DOPC   C1A 2099  18.751   6.549   4.551
  176DOPC   D2A 2100  18.764   6.566   4.252
  176DOPC   C3A 2101  18.709   6.562   3.952
  176DOPC   C4A 2102  18.700   6.522   3.651
  176DOPC   C1B 2103  19.053   6.694   4.551
  176DOPC   D2B 2104  19.045   6.678   4.252
  176DOPC   C3B 2105  19.043   6.630   3.952
  176DOPC   C4B 2106  19.072   6.610   3.651
  177DOPC   NC3 2107   5.735   4.928   5.452
  177DOPC   PO4 2108   5.811   4.868   5.152
  177DOPC   GL1 2109   5.736   4.842   4.851
  177DOPC   GL2 2110   5.853   5.060   4.851
  177DOPC   C1A 2111   5.801   4.848   4.551
  177DOPC   D2A 2112   5.754   4.831   4.252
  177DOPC   C3A 2113   5.777   4.893   3.952
  177DOPC   C4A 2114   5.781   4.840   3.651
  177DOPC   C1B 2115   5.865   5.171   4.551
  177DOPC   D2B 2116   5.900   5.205   4.252
  177DOPC   C3B 2117   5.898   5.227   3.952
  177DOPC   C4B 2118   5.856   5.181   3.651
  178DOPC   NC3 2119   9.827   2.053   5.452
  178DOPC   PO4 2120   9.792   2.029   5.152
  178DOPC   GL1 2121   9.873   2.053   4.851
  178DOPC   GL2 2122   9.638   1.987   4.851
  178DOPC   C1A 2123   9.809   2.066   4.551
  178DOPC   D2A 2124   9.812   2.038   4.252
  178DOPC   C3A 2125   9.853   2.081   3.952
  178DOPC   C4A 2126   9.828   2.089   3.651
  178DOPC   C1B 2127   9.470   1.931   4.551
  178DOPC   D2B 2128   9.528   1.946   4.252
  178DOPC   C3B 2129   9.501   1.878   3.952
  178DOPC   C4B 2130   9.522   1.873   3.651
  179DOPC   NC3 2131  13.379   6.719   5.452
  179DOPC   PO4 2132  13.395   6.698   5.152
  179DOPC   GL1 2133  13.365   6.649   4.851
  179DOPC   GL2 2134  13.467   6.540   4.851
  179DOPC   C1A 2135  13.311   6.648   4.551
  179DOPC   D2A 2136  13.387   6.692   4.252
  179DOPC   C3A 2137  13.385   6.654   3.952
  179DOPC   C4A 2138  13.379   6.687   3.651
  179DOPC   C1B 2139  13.645   6.534   4.551
  179DOPC   D2B 2140  13.711   6.513   4.252
  179DOPC   C3B 2141  13.706   6.529   3.952
  179DOPC   C4B 2142  13.627   6.538   3.651
  180DOPC   NC3 2143   8.824   9.886   5.452
  180DOPC   PO4 2144   8.874   9.800   5.152
  180DOPC   GL1 2145   8.877   9.841   4.851
  180DOPC   GL2 2146   8.912   9.625   4.851
  180DOPC   C1A 2147   8.891   9.876   4.551
  180DOPC   D2A 2148   8.893   9.816   4.252
  180DOPC   C3A 2149   8.916   9.795   3.952
  180DOPC   C4A 2150   8.905   9.823   3.651
  180DOPC   C1B 2151   8.953   9.450   4.551
  180DOPC   D2B 2152   8.902   9.510   4.252
  180DOPC   C3B 2153   8.945   9.459   3.952
  180DOPC   C4B 2154   8.910   9.446   3.651
  181DOPC   NC3 2155  15.934   5.173   5.452
  181DOPC   PO4 2156  15.885   5.215   5.152
  181DOPC   GL1 2157  15.951   5.208   4.851
  181DOPC   GL2 2158  15.807   5.060   4.851
  181DOPC   C1A 2159  15.919   5.244   4.551
  181DOPC   D2A 2160  15.947   5.214   4.252
  181DOPC   C3A 2161  15.933   5.210   3.952
  181DOPC   C4A 2162  15.923   5.187   3.651
  181DOPC   C1B 2163  15.697   4.949   4.551
  181DOPC   D2B 2164  15.751   4.904   4.252
  181DOPC   C3B 2165  15.750   4.871   3.952
  181DOPC   C4B 2166  15.772   4.892   3.651
  182DOPC   NC3 2167   2.631   2.690   5.452
  182DOPC   PO4 2168   2.578   2.684   5.152
  182DOPC   GL1 2169   2.601   2.642   4.851
  182DOPC   GL2 2170   2.773   2.708   4.851
  182DOPC   C1A 2171   2.614   2.681   4.551
  182DOPC   D2A 2172   2.641   2.592   4.252
  182DOPC   C3A 2173   2.640   2.625   3.952
  182DOPC   C4A 2174   2.589   2.662   3.651
  182DOPC   C1B 2175   2.923   2.877   4.551
  182DOPC   D2B 2176   2.852   2.813   4.252
  182DOPC   C3B 2177   2.881   2.809   3.952
  182DOPC   C4B 2178   2.938   2.871   3.651
  183DOPC   NC3 2179   1.035   3.447   5.452
  183DOPC   PO4 2180   1.070   3.460   5.152
  183DOPC   GL1 2181   1.075   3.442   4.851
  183DOPC   GL2 2182   1.161   3.560   4.851
  183DOPC   C1A 2183   1.020   3.456   4.551
  183DOPC   D2A 2184   1.063   3.477   4.252
  183DOPC   C3A 2185   1.045   3.495   3.952
  183DOPC   C4A 2186   0.986   3.494   3.651
  183DOPC   C1B 2187   1.411   3.589   4.551
  183DOPC   D2B 2188   1.419   3.543   4.252
  183DOPC   C3B 2189   1.408   3.572   3.952
  183DOPC   C4B 2190   1.348   3.572   3.651
  184DOPC   NC3 2191  11.949   0.658   5.452
  184DOPC   PO4 2192  11.952   0.625   5.152
  184DOPC   GL1 2193  11.986   0.596   4.851
  184DOPC   GL2 2194  11.980   0.442   4.851
  184DOPC   C1A 2195  11.971   0.594   4.551
  184DOPC   D2A 2196  12.018   0.661   4.252
  184DOPC   C3A 2197  12.007   0.658   3.952
  184DOPC   C4A 2198  12.035   0.595   3.651
  184DOPC   C1B 2199  11.950   0.248   4.551
  184DOPC   D2B 2200  11.972   0.241   4.252
  184DOPC   C3B 2201  11.978   0.256   3.952
  184DOPC   C4B 2202  11.928   0.302   3.651
  185DOPC   NC3 2203   3.402   2.643   5.452
  185DOPC   PO4 2204   3.382   2.581   5.152
  185DOPC   GL1 2205   3.401   2.562   4.851
  185DOPC   GL2 2206   3.508   2.740   4.851
  185DOPC   C1A 2207   3.425   2.595   4.551
  185DOPC   D2A 2208   3.396   2.579   4.252
  185DOPC   C3A 2209   3.440   2.567   3.952
  185DOPC   C4A 2210   3.370   2.646   3.651
  185DOPC   C1B 2211   3.573   2.853   4.551
  185DOPC   D2B 2212   3.660   2.911   4.252
  185DOPC   C3B 2213   3.660   2.882   3.952
  185DOPC   C4B 2214   3.629   2.835   3.651
  186DOPC   NC3 2215   4.372   2.584   5.452
  186DOPC   PO4 2216   4.341   2.611   5.152
  186DOPC   GL1 2217   4.400   2.575   4.851
  186DOPC   GL2 2218   4.244   2.764   4.851
  186DOPC   C1A 2219   4.383   2.599   4.551
  186DOPC   D2A 2220   4.402   2.636   4.252
  186DOPC   C3A 2221   4.437   2.587   3.952
  186DOPC   C4A 2222   4.395   2.618   3.651
  186DOPC   C1B 2223   4.126   2.918   4.551
  186DOPC   D2B 2224   4.150   2.899   4.252
  186DOPC   C3B 2225   4.127   2.905   3.952
  186DOPC   C4B 2226   4.214   2.854   3.651
  187DOPC   NC3 2227   8.873   7.950   5.452
  187DOPC   PO4 2228   8.790   7.958   5.152
  187DOPC   GL1 2229   8.872   7.990   4.851
  187DOPC   GL2 2230   8.943   8.110   4.851
  187DOPC   C1A 2231   8.822   7.938   4.551
  187DOPC   D2A 2232   8.880   7.959   4.252
  187DOPC   C3A 2233   8.842   7.928   3.952
  187DOPC   C4A 2234   8.800   7.948   3.651
  187DOPC   C1B 2235   8.937   8.271   4.551
  187DOPC   D2B 2236   8.952   8.256   4.252
  187DOPC   C3B 2237   8.956   8.322   3.952
  187DOPC   C4B 2238   8.925   8.267   3.651
  188DOPC   NC3 2239  15.978   3.640   5.452
  188DOPC   PO4 2240  15.991   3.617   5.152
  188DOPC   GL1 2241  15.943   3.649   4.851
  188DOPC   GL2 2242  15.776   3.552   4.851
  188DOPC   C1A 2243  15.989   3.684   4.551
  188DOPC   D2A 2244  15.962   3.594   4.252
  188DOPC   C3A 2245  15.946   3.676   3.952
  188DOPC   C4A 2246  15.932   3.623   3.651
  188DOPC   C1B 2247  15.711   3.356   4.551
  188DOPC   D2B 2248  15.719   3.353   4.252
  188DOPC   C3B 2249  15.717   3.414   3.952
  188DOPC   C4B 2250  15.727   3.387   3.651
  189DOPC   NC3 2251   7.380   0.649   5.452
  189DOPC   PO4 2252   7.426   0.592   5.152
  189DOPC   GL1 2253   7.378   0.629   4.851
  189DOPC   GL2 2254   7.371   0.469   4.851
  189DOPC   C1A 2255   7.397   0.636   4.551
  189DOPC   D2A 2256   7.405   0.616   4.252
  189DOPC   C3A 2257   7.422   0.593   3.952
  189DOPC   C4A 2258   7.350   0.597   3.651
  189DOPC   C1B 2259   7.334   0.258   4.551
  189DOPC   D2B 2260   7.291   0.216   4.252
  189DOPC   C3B 2261   7.368   0.210   3.952
  189DOPC   C4B 2262   7.295   0.265   3.651
  190DOPC   NC3 2263   8.291   5.092   5.452
  190DOPC   PO4 2264   8.329   5.078   5.152
  190DOPC   GL1 2265   8.325   5.037   4.851
  190DOPC   GL2 2266   8.102   5.036   4.851
  190DOPC   C1A 2267   8.311   5.112   4.551
  190DOPC   D2A 2268   8.324   5.130   4.252
  190DOPC   C3A 2269   8.308   5.043   3.952
  190DOPC   C4A 2270   8.350   5.087   3.651
  190DOPC   C1B 2271   7.934   4.987   4.551
  190DOPC   D2B 2272   7.905   4.989   4.252
  190DOPC   C3B 2273   7.981   4.992   3.952
  190DOPC   C4B 2274   7.918   5.027   3.651
  191DOPC   NC3 2275  18.703   1.974   5.452
  191DOPC   PO4 2276  18.765   1.959   5.152
  191DOPC   GL1 2277  18.749   2.002   4.851
  191DOPC   GL2 2278  18.896   1.973   4.851
  191DOPC   C1A 2279  18.674   1.979   4.551
  191DOPC   D2A 2280  18.749   2.007   4.252
  191DOPC   C3A 2281  18.765   2.032   3.952
  191DOPC   C4A 2282  18.770   1.976   3.651
  191DOPC   C1B 2283  19.036   1.918   4.551
  191DOPC   D2B 2284  19.084   1.905   4.252
  191DOPC   C3B 2285  19.047   1.926   3.952
  191DOPC   C4B 2286  19.117   1.925   3.651
  192DOPC   NC3 2287  12.934   6.583   5.452
  192DOPC   PO4 2288  12.922   6.574   5.152
  192DOPC   GL1 2289  12.965   6.613   4.851
  192DOPC   GL2 2290  12.709   6.616   4.851
  192DOPC   C1A 2291  12.949   6.566   4.551
  192DOPC   D2A 2292  12.909   6.621   4.252
  192DOPC   C3A 2293  12.931   6.646   3.952
  192DOPC   C4A 2294  12.877   6.657   3.651
  192DOPC   C1B 2295  12.566   6.568   4.551
  192DOPC   D2B 2296  12.592   6.521   4.252
  192DOPC   C3B 2297  12.544   6.538   3.952
  192DOPC   C4B 2298  12.589   6.595   3.651
  193DOPC   NC3 2299   0.346   3.361   5.452
  193DOPC   PO4 2300   0.352   3.355   5.152
  193DOPC   GL1 2301   0.406   3.378   4.851
  193DOPC   GL2 2302   0.463   3.463   4.851
  193DOPC   C1A 2303   0.373   3.379   4.551
  193DOPC   D2A 2304   0.317   3.332   4.252
  193DOPC   C3A 2305   0.372   3.363   3.952
  193DOPC   C4A 2306   0.371   3.396   3.651
  193DOPC   C1B 2307   0.460   3.696   4.551
  193DOPC   D2B 2308   0.463   3.696   4.252
  193DOPC   C3B 2309   0.512   3.650   3.952
  193DOPC   C4B 2310   0.527   3.708   3.651
  194DOPC   NC3 2311  15.616   2.851   5.452
  194DOPC   PO4 2312  15.641   2.807   5.152
  194DOPC   GL1 2313  15.629   2.808   4.851
  194DOPC   GL2 2314  15.849   2.771   4.851
  194DOPC   C1A 2315  15.640   2.839   4.551
  194DOPC   D2A 2316  15.672   2.801   4.252
  194DOPC   C3A 2317  15.674   2.797   3.952
  194DOPC   C4A 2318  15.611   2.774   3.651
  194DOPC   C1B 2319  15.979   2.632   4.551
  194DOPC   D2B 2320  16.035   2.646   4.252
  194DOPC   C3B 2321  16.018   2.657   3.952
  194DOPC   C4B 2322  15.997   2.653   3.651
  195DOPC   NC3 2323  12.851   2.547   5.452
  195DOPC   PO4 2324  12.823   2.590   5.152
  195DOPC   GL1 2325  12.824   2.533   4.851
  195DOPC   GL2 2326  12.714   2.737   4.851
  195DOPC   C1A 2327  12.772   2.577   4.551
  195DOPC   D2A 2328  12.794   2.554   4.252
  195DOPC   C3A 2329  12.838   2.595   3.952
  195DOPC   C4A 2330  12.841   2.611   3.651
  195DOPC   C1B 2331  12.711   2.937   4.551
  195DOPC   D2B 2332  12.726   2.911   4.252
  195DOPC   C3B 2333  12.710   2.930   3.952
  195DOPC   C4B 2334  12.722   2.949   3.651
  196DOPC   NC3 2335   4.966   1.788   5.452
  196DOPC   PO4 2336   4.925   1.881   5.152
  196DOPC   GL1 2337   4.946   1.818   4.851
  196DOPC   GL2 2338   5.042   1.942   4.851
  196DOPC   C1A 2339   4.975   1.853   4.551
  196DOPC   D2A 2340   4.982   1.796   4.252
  196DOPC   C3A 2341   4.989   1.828   3.952
  196DOPC   C4A 2342   4.943   1.864   3.651
  196DOPC   C1B 2343   5.198   2.153   4.551
  196DOPC   D2B 2344   5.202   2.065   4.252
  196DOPC   C3B 2345   5.181   2.155   3.952
  196DOPC   C4B 2346   5.180   2.152   3.651
  197DOPC   NC3 2347   7.998   8.239   5.452
  197DOPC   PO4 2348   8.030   8.306   5.152
  197DOPC   GL1 2349   7.984   8.303   4.851
  197DOPC   GL2 2350   8.081   8.093   4.851
  197DOPC   C1A 2351   8.074   8.312   4.551
  197DOPC   D2A 2352   8.004   8.234   4.252
  197DOPC   C3A 2353   7.990   8.232   3.952
  197DOPC   C4A 2354   7.987   8.320   3.651
  197DOPC   C1B 2355   8.221   7.996   4.551
  197DOPC   D2B 2356   8.241   7.935   4.252
  197DOPC   C3B 2357   8.261   7.957   3.952
  197DOPC   C4B 2358   8.254   7.945   3.651
  198DOPC   NC3 2359  18.056   9.536   5.452
  198DOPC   PO4 2360  18.030   9.556   5.152
  198DOPC   GL1 2361  18.010   9.560   4.851
  198DOPC   GL2 2362  18.143   9.636   4.851
  198DOPC   C1A 2363  18.021   9.509   4.551
  198DOPC   D2A 2364  18.033   9.496   4.252
  198DOPC   C3A 2365  17.995   9.485   3.952
  198DOPC   C4A 2366  18.048   9.476   3.651
  198DOPC   C1B 2367  18.178   9.819   4.551
  198DOPC   D2B 2368  18.253   9.861   4.252
  198DOPC   C3B 2369  18.211   9.795   3.952
  198DOPC   C4B 2370  18.195   9.824   3.651
  199DOPC   NC3 2371   0.411   2.102   5.452
  199DOPC   PO4 2372   0.456   2.135   5.152
  199DOPC   GL1 2373   0.428   2.168   4.851
  199DOPC   GL2 2374   0.431   1.975   4.851
  199DOPC   C1A 2375   0.425   2.127   4.551
  199DOPC   D2A 2376   0.433   2.130   4.252
  199DOPC   C3A 2377   0.418   2.126   3.952
  199DOPC   C4A 2378   0.466   2.120   3.651
  199DOPC   C1B 2379   0.454   1.800   4.551
  199DOPC   D2B 2380   0.406   1.749   4.252
  199DOPC   C3B 2381   0.415   1.818   3.952
  199DOPC   C4B 2382   0.412   1.753   3.651
  200DOPC   NC3 2383  12.159   3.570   5.452
  200DOPC   PO4 2384  12.105   3.592   5.152
  200DOPC   GL1 2385  12.107   3.591   4.851
  200DOPC   GL2 2386  11.924   3.534   4.851
  200DOPC   C1A 2387  12.088   3.555   4.551
  200DOPC   D2A 2388  12.088   3.570   4.252
  200DOPC   C3A 2389  12.108   3.619   3.952
  200DOPC   C4A 2390  12.172   3.621   3.651
  200DOPC   C1B 2391  11.793   3.404   4.551
  200DOPC   D2B 2392  11.765   3.489   4.252
  200DOPC   C3B 2393  11.814   3.465   3.952
  200DOPC   C4B 2394  11.793   3.472   3.651
  201DOPC   NC3 2395   2.823   0.635   5.452
  201DOPC   PO4 2396   2.808   0.576   5.152
  201DOPC   GL1 2397   2.825   0.653   4.851
  201DOPC   GL2 2398   2.774   0.426   4.851
  201DOPC   C1A 2399   2.823   0.624   4.551
  201DOPC   D2A 2400   2.832   0.627   4.252
  201DOPC   C3A 2401   2.824   0.624   3.952
  201DOPC   C4A 2402   2.818   0.614   3.651
  201DOPC   C1B 2403   2.685   0.226   4.551
  201DOPC   D2B 2404   2.700   0.295   4.252
  201DOPC   C3B 2405   2.714   0.219   3.952
  201DOPC   C4B 2406   2.721   0.228   3.651
  202DOPC   NC3 2407   2.048   0.308   5.452
  202DOPC   PO4 2408   2.034   0.330   5.152
  202DOPC   GL1 2409   2.034   0.272   4.851
  202DOPC   GL2 2410   1.968   0.415   4.851
  202DOPC   C1A 2411   2.026   0.292   4.551
  202DOPC   D2A 2412   2.059   0.248   4.252
  202DOPC   C3A 2413   2.041   0.238   3.952
  202DOPC   C4A 2414   2.029   0.315   3.651
  202DOPC   C1B 2415   1.849   0.574   4.551
  202DOPC   D2B 2416   1.877   0.623   4.252
  202DOPC   C3B 2417   1.915   0.574   3.952
  202DOPC   C4B 2418   1.864   0.634   3.651
  203DOPC   NC3 2419  14.117   3.511   5.452
  203DOPC   PO4 2420  14.126   3.572   5.152
  203DOPC   GL1 2421  14.086   3.534   4.851
  203DOPC   GL2 2422  14.322   3.486   4.851
  203DOPC   C1A 2423  14.110   3.537   4.551
  203DOPC   D2A 2424  14.117   3.498   4.252
  203DOPC   C3A 2425  14.149   3.492   3.952
  203DOPC   C4A 2426  14.084   3.569   3.651
  203DOPC   C1B 2427  14.421   3.476   4.551
  203DOPC   D2B 2428  14.414   3.446   4.252
  203DOPC   C3B 2429  14.484   3.492   3.952
  203DOPC   C4B 2430  14.433   3.508   3.651
  204DOPC   NC3 2431   5.768   9.074   5.452
  204DOPC   PO4 2432   5.736   9.113   5.152
  204DOPC   GL1 2433   5.757   9.027   4.851
  204DOPC   GL2 2434   5.805   8.895   4.851
  204DOPC   C1A 2435   5.767   9.089   4.551
  204DOPC   D2A 2436   5.818   9.111   4.252
  204DOPC   C3A 2437   5.767   9.071   3.952
  204DOPC   C4A 2438   5.823   9.030   3.651
  204DOPC   C1B 2439   5.883   8.741   4.551
  204DOPC   D2B 2440   5.824   8.696   4.252
  204DOPC   C3B 2441   5.827   8.693   3.952
  204DOPC   C4B 2442   5.806   8.730   3.651
  205DOPC   NC3 2443  11.838   6.649   5.452
  205DOPC   PO4 2444  11.806   6.618   5.152
  205DOPC   GL1 2445  11.774   6.622   4.851
  205DOPC   GL2 2446  11.935   6.548   4.851
  205DOPC   C1A 2447  11.752   6.652   4.551
  205DOPC   D2A 2448  11.837   6.593   4.252
  205DOPC   C3A 2449  11.841   6.620   3.952
  205DOPC   C4A 2450  11.825   6.653   3.651
  205DOPC   C1B 2451  12.194   6.544   4.551
  205DOPC   D2B 2452  12.116   6.544   4.252
  205DOPC   C3B 2453  12.150   6.564   3.952
  205DOPC   C4B 2454  12.101   6.550   3.651
  206DOPC   NC3 2455   6.669   4.920   5.452
  206DOPC   PO4 2456   6.606   4.909   5.152
  206DOPC   GL1 2457   6.619   4.855   4.851
  206DOPC   GL2 2458   6.556   5.018   4.851
  206DOPC   C1A 2459   6.624   4.922   4.551
  206DOPC   D2A 2460   6.658   4.848   4.252
  206DOPC   C3A 2461   6.640   4.874   3.952
  206DOPC   C4A 2462   6.598   4.903   3.651
  206DOPC   C1B 2463   6.574   5.245   4.551
  206DOPC   D2B 2464   6.570   5.267   4.252
  206DOPC   C3B 2465   6.579   5.222   3.952
  206DOPC   C4B 2466   6.543   5.210   3.651
  207DOPC   NC3 2467   8.077   1.826   5.452
  207DOPC   PO4 2468   8.059   1.823   5.152
  207DOPC   GL1 2469   8.055   1.844   4.851
  207DOPC   GL2 2470   8.138   1.931   4.851
  207DOPC   C1A 2471   8.071   1.851   4.551
  207DOPC   D2A 2472   8.041   1.802   4.252
  207DOPC   C3A 2473   8.105   1.835   3.952
  207DOPC   C4A 2474   8.065   1.770   3.651
  207DOPC   C1B 2475   8.163   2.157   4.551
  207DOPC   D2B 2476   8.177   2.095   4.252
  207DOPC   C3B 2477   8.197   2.119   3.952
  207DOPC   C4B 2478   8.220   2.106   3.651
  208DOPC   NC3 2479  15.045   3.287   5.452
  208DOPC   PO4 2480  15.029   3.316   5.152
  208DOPC   GL1 2481  15.035   3.294   4.851
  208DOPC   GL2 2482  15.037   3.495   4.851
  208DOPC   C1A 2483  15.045   3.297   4.551
  208DOPC   D2A 2484  15.008   3.355   4.252
  208DOPC   C3A 2485  15.032   3.322   3.952
  208DOPC   C4A 2486  15.031   3.306   3.651
  208DOPC   C1B 2487  15.125   3.723   4.551
  208DOPC   D2B 2488  15.042   3.729   4.252
  208DOPC   C3B 2489  15.120   3.682   3.952
  208DOPC   C4B 2490  15.079   3.723   3.651
  209DOPC   NC3 2491   5.053   8.756   5.452
  209DOPC   PO4 2492   5.133   8.696   5.152
  209DOPC   GL1 2493   5.073   8.743   4.851
  209DOPC   GL2 2494   5.060   8.875   4.851
  209DOPC   C1A 2495   5.067   8.676   4.551
  209DOPC   D2A 2496   5.084   8.715   4.252
  209DOPC   C3A 2497   5.064   8.772   3.952
  209DOPC   C4A 2498   5.069   8.770   3.651
  209DOPC   C1B 2499   5.040   9.026   4.551
  209DOPC   D2B 2500   5.001   9.026   4.252
  209DOPC   C3B 2501   4.981   9.033   3.952
  209DOPC   C4B 2502   5.016   9.095   3.651
  210DOPC   NC3 2503  13.439   2.129   5.452
  210DOPC   PO4 2504  13.462   2.171   5.152
  210DOPC   GL1 2505  13.465   2.141   4.851
  210DOPC   GL2 2506  13.492   1.971   4.851
  210DOPC   C1A 2507  13.474   2.191   4.551
  210DOPC   D2A 2508  13.484   2.125   4.252
  210DOPC   C3A 2509  13.452   2.111   3.952
  210DOPC   C4A 2510  13.512   2.136   3.651
  210DOPC   C1B 2511  13.495   1.800   4.551
  210DOPC   D2B 2512  13.501   1.795   4.252
  210DOPC   C3B 2513  13.550   1.832   3.952
  210DOPC   C4B 2514  13.522   1.773   3.651
  211DOPC   NC3 2515  19.853   4.306   5.452
  211DOPC   PO4 2516  19.849   4.284   5.152
  211DOPC   GL1 2517  19.836   4.253   4.851
  211DOPC   GL2 2518  19.670   4.255   4.851
  211DOPC   C1A 2519  19.807   4.255   4.551
  211DOPC   D2A 2520  19.860   4.264   4.252
  211DOPC   C3A 2521  19.808   4.283   3.952
  211DOPC   C4A 2522  19.880   4.312   3.651
  211DOPC   C1B 2523  19.446   4.245   4.551
  211DOPC   D2B 2524  19.480   4.326   4.252
  211DOPC   C3B 2525  19.488   4.262   3.952
  211DOPC   C4B 2526  19.531   4.262   3.651
  212DOPC   NC3 2527  11.765   5.842   5.452
  212DOPC   PO4 2528  11.810   5.876   5.152
  212DOPC   GL1 2529  11.745   5.837   4.851
  212DOPC   GL2 2530  12.008   5.815   4.851
  212DOPC   C1A 2531  11.746   5.837   4.551
  212DOPC   D2A 2532  11.845   5.852   4.252
  212DOPC   C3A 2533  11.812   5.873   3.952
  212DOPC   C4A 2534  11.763   5.838   3.651
  212DOPC   C1B 2535  12.178   5.834   4.551
  212DOPC   D2B 2536  12.123   5.787   4.252
  212DOPC   C3B 2537  12.150   5.771   3.952
  212DOPC   C4B 2538  12.175   5.770   3.651
  213DOPC   NC3 2539   5.916   6.414   5.452
  213DOPC   PO4 2540   5.963   6.420   5.152
  213DOPC   GL1 2541   5.906   6.425   4.851
  213DOPC   GL2 2542   5.804   6.607   4.851
  213DOPC   C1A 2543   5.890   6.476   4.551
  213DOPC   D2A 2544   5.938   6.442   4.252
  213DOPC   C3A 2545   5.923   6.411   3.952
  213DOPC   C4A 2546   5.899   6.498   3.651
  213DOPC   C1B 2547   5.733   6.691   4.551
  213DOPC   D2B 2548   5.758   6.697   4.252
  213DOPC   C3B 2549   5.676   6.752   3.952
  213DOPC   C4B 2550   5.739   6.772   3.651
  214DOPC   NC3 2551  11.195   3.371   5.452
  214DOPC   PO4 2552  11.191   3.288   5.152
  214DOPC   GL1 2553  11.188   3.361   4.851
  214DOPC   GL2 2554  11.181   3.470   4.851
  214DOPC   C1A 2555  11.172   3.360   4.551
  214DOPC   D2A 2556  11.199   3.366   4.252
  214DOPC   C3A 2557  11.260   3.331   3.952
  214DOPC   C4A 2558  11.207   3.297   3.651
  214DOPC   C1B 2559  11.214   3.654   4.551
  214DOPC   D2B 2560  11.164   3.653   4.252
  214DOPC   C3B 2561  11.218   3.739   3.952
  214DOPC   C4B 2562  11.209   3.682   3.651
  215DOPC   NC3 2563   5.673   4.333   5.452
  215DOPC   PO4 2564   5.668   4.326   5.152
  215DOPC   GL1 2565   5.677   4.279   4.851
  215DOPC   GL2 2566   5.853   4.321   4.851
  215DOPC   C1A 2567   5.664   4.305   4.551
  215DOPC   D2A 2568   5.603   4.264   4.252
  215DOPC   C3A 2569   5.679   4.341   3.952
  215DOPC   C4A 2570   5.595   4.300   3.651
  215DOPC   C1B 2571   6.032   4.241   4.551
  215DOPC   D2B 2572   5.947   4.239   4.252
  215DOPC   C3B 2573   6.030   4.219   3.952
  215DOPC   C4B 2574   6.018   4.239   3.651
  216DOPC   NC3 2575  19.838   2.658   5.452
  216DOPC   PO4 2576  19.791   2.629   5.152
  216DOPC   GL1 2577  19.838   2.581   4.851
  216DOPC   GL2 2578  19.687   2.750   4.851
  216DOPC   C1A 2579  19.770   2.566   4.551
  216DOPC   D2A 2580  19.823   2.569   4.252
  216DOPC   C3A 2581  19.818   2.647   3.952
  216DOPC   C4A 2582  19.793   2.637   3.651
  216DOPC   C1B 2583  19.498   2.829   4.551
  216DOPC   D2B 2584  19.574   2.874   4.252
  216DOPC   C3B 2585  19.512   2.852   3.952
  216DOPC   C4B 2586  19.581   2.846   3.651
  217DOPC   NC3 2587  17.447   6.723   5.452
  217DOPC   PO4 2588  17.487   6.723   5.152
  217DOPC   GL1 2589  17.458   6.705   4.851
  217DOPC   GL2 2590  17.398   6.585   4.851
  217DOPC   C1A 2591  17.429   6.691   4.551
  217DOPC   D2A 2592  17.441   6.682   4.252
  217DOPC   C3A 2593  17.481   6.708   3.952
  217DOPC   C4A 2594  17.515   6.723   3.651
  217DOPC   C1B 2595  17.200   6.496   4.551
  217DOPC   D2B 2596  17.207   6.429   4.252
  217DOPC   C3B 2597  17.251   6.400   3.952
  217DOPC   C4B 2598  17.206   6.432   3.651
  218DOPC   NC3 2599  11.301   4.420   5.452
  218DOPC   PO4 2600  11.227   4.487   5.152
  218DOPC   GL1 2601  11.293   4.476   4.851
  218DOPC   GL2 2602  11.197   4.285   4.851
  218DOPC   C1A 2603  11.251   4.444   4.551
  218DOPC   D2A 2604  11.225   4.438   4.252
  218DOPC   C3A 2605  11.264   4.448   3.952
  218DOPC   C4A 2606  11.273   4.490   3.651
  218DOPC   C1B 2607  11.153   4.088   4.551
  218DOPC   D2B 2608  11.183   4.128   4.252
  218DOPC   C3B 2609  11.163   4.076   3.952
  218DOPC   C4B 2610  11.109   4.144   3.651
  219DOPC   NC3 2611   1.981   5.646   5.452
  219DOPC   PO4 2612   1.970   5.663   5.152
  219DOPC   GL1 2613   1.945   5.683   4.851
  219DOPC   GL2 2614   1.944   5.804   4.851
  219DOPC   C1A 2615   1.934   5.633   4.551
  219DOPC   D2A 2616   1.949   5.651   4.252
  219DOPC   C3A 2617   1.922   5.680   3.952
  219DOPC   C4A 2618   1.945   5.614   3.651
  219DOPC   C1B 2619   1.947   6.007   4.551
  219DOPC   D2B 2620   2.024   6.044   4.252
  219DOPC   C3B 2621   2.034   5.949   3.952
  219DOPC   C4B 2622   1.964   6.039   3.651
  220DOPC   NC3 2623  14.310   0.292   5.452
  220DOPC   PO4 2624  14.311   0.221   5.152
  220DOPC   GL1 2625  14.279   0.223   4.851
  220DOPC   GL2 2626  14.271   0.452   4.851
  220DOPC   C1A 2627  14.303   0.281   4.551
  220DOPC   D2A 2628  14.318   0.259   4.252
  220DOPC   C3A 2629  14.262   0.290   3.952
  220DOPC   C4A 2630  14.300   0.220   3.651
  220DOPC   C1B 2631  14.285   0.661   4.551
  220DOPC   D2B 2632  14.255   0.657   4.252
  220DOPC   C3B 2633  14.312   0.569   3.952
  220DOPC   C4B 2634  14.317   0.610   3.651
  221DOPC   NC3 2635   1.840   8.808   5.452
  221DOPC   PO4 2636   1.844   8.850   5.152
  221DOPC   GL1 2637   1.811   8.885   4.851
  221DOPC   GL2 2638   1.995   8.946   4.851
  221DOPC   C1A 2639   1.756   8.855   4.551
  221DOPC   D2A 2640   1.779   8.889   4.252
  221DOPC   C3A 2641   1.751   8.845   3.952
  221DOPC   C4A 2642   1.800   8.825   3.651
  221DOPC   C1B 2643   2.166   8.904   4.551
  221DOPC   D2B 2644   2.159   8.938   4.252
  221DOPC   C3B 2645   2.169   8.953   3.952
  221DOPC   C4B 2646   2.177   8.992   3.651
  222DOPC   NC3 2647  17.417   3.702   5.452
  222DOPC   PO4 2648  17.386   3.694   5.152
  222DOPC   GL1 2649  17.408   3.656   4.851
  222DOPC   GL2 2650  17.333   3.485   4.851
  222DOPC   C1A 2651  17.453   3.685   4.551
  222DOPC   D2A 2652  17.443   3.733   4.252
  222DOPC   C3A 2653  17.365   3.684   3.952
  222DOPC   C4A 2654  17.368   3.699   3.651
  222DOPC   C1B 2655  17.297   3.306   4.551
  222DOPC   D2B 2656  17.344   3.359   4.252
  222DOPC   C3B 2657  17.295   3.301   3.952
  222DOPC   C4B 2658  17.295   3.310   3.651
  223DOPC   NC3 2659   4.315   2.150   5.452
  223DOPC   PO4 2660   4.281   2.104   5.152
  223DOPC   GL1 2661   4.246   2.158   4.851
  223DOPC   GL2 2662   4.272   1.923   4.851
  223DOPC   C1A 2663   4.246   2.187   4.551
  223DOPC   D2A 2664   4.267   2.147   4.252
  223DOPC   C3A 2665   4.242   2.170   3.952
  223DOPC   C4A 2666   4.245   2.191   3.651
  223DOPC   C1B 2667   4.288   1.774   4.551
  223DOPC   D2B 2668   4.335   1.808   4.252
  223DOPC   C3B 2669   4.249   1.787   3.952
  223DOPC   C4B 2670   4.284   1.787   3.651
  224DOPC   NC3 2671   7.545   8.063   5.452
  224DOPC   PO4 2672   7.500   8.064   5.152
  224DOPC   GL1 2673   7.465   8.049   4.851
  224DOPC   GL2 2674   7.316   8.117   4.851
  224DOPC   C1A 2675   7.461   8.018   4.551
  224DOPC   D2A 2676   7.472   8.018   4.252
  224DOPC   C3A 2677   7.548   7.979   3.952
  224DOPC   C4A 2678   7.531   8.040   3.651
  224DOPC   C1B 2679   7.173   8.271   4.551
  224DOPC   D2B 2680   7.261   8.279   4.252
  224DOPC   C3B 2681   7.231   8.200   3.952
  224DOPC   C4B 2682   7.249   8.185   3.651
  225DOPC   NC3 2683  10.561   9.841   5.452
  225DOPC   PO4 2684  10.518   9.867   5.152
  225DOPC   GL1 2685  10.511   9.789   4.851
  225DOPC   GL2 2686  10.455   9.680   4.851
  225DOPC   C1A 2687  10.497   9.828   4.551
  225DOPC   D2A 2688  10.561   9.850   4.252
  225DOPC   C3A 2689  10.484   9.843   3.952
  225DOPC   C4A 2690  10.543   9.795   3.651
  225DOPC   C1B 2691  10.309   9.555   4.551
  225DOPC   D2B 2692  10.305   9.473   4.252
  225DOPC   C3B 2693  10.387   9.471   3.952
  225DOPC   C4B 2694  10.334   9.559   3.651
  226DOPC   NC3 2695   4.284   7.136   5.452
  226DOPC   PO4 2696   4.279   7.182   5.152
  226DOPC   GL1 2697   4.273   7.167   4.851
  226DOPC   GL2 2698   4.258   7.352   4.851
  226DOPC   C1A 2699   4.253   7.206   4.551
  226DOPC   D2A 2700   4.278   7.231   4.252
  226DOPC   C3A 2701   4.225   7.221   3.952
  226DOPC   C4A 2702   4.262   7.197   3.651
  226DOPC   C1B 2703   4.344   7.543   4.551
  226DOPC   D2B 2704   4.348   7.510   4.252
  226DOPC   C3B 2705   4.329   7.565   3.952
  226DOPC   C4B 2706   4.292   7.543   3.651
  227DOPC   NC3 2707  19.816   3.522   5.452
  227DOPC   PO4 2708  19.832   3.530   5.152
  227DOPC   GL1 2709  19.890   3.578   4.851
  227DOPC   GL2 2710  19.616   3.484   4.851
  227DOPC   C1A 2711  19.883   3.508   4.551
  227DOPC   D2A 2712  19.824   3.560   4.252
  227DOPC   C3A 2713  19.849   3.556   3.952
  227DOPC   C4A 2714  19.883   3.555   3.651
  227DOPC   C1B 2715  19.506   3.432   4.551
  227DOPC   D2B 2716  19.522   3.471   4.252
  227DOPC   C3B 2717  19.465   3.526   3.952
  227DOPC   C4B 2718  19.499   3.437   3.651
  228DOPC   NC3 2719   4.837   4.291   5.452
  228DOPC   PO4 2720   4.888   4.287   5.152
  228DOPC   GL1 2721   4.844   4.292   4.851
  228DOPC   GL2 2722   5.084   4.270   4.851
  228DOPC   C1A 2723   4.898   4.296   4.551
  228DOPC   D2A 2724   4.845   4.279   4.252
  228DOPC   C3A 2725   4.823   4.319   3.952
  228DOPC   C4A 2726   4.892   4.257   3.651
  228DOPC   C1B 2727   5.199   4.227   4.551
  228DOPC   D2B 2728   5.249   4.230   4.252
  228DOPC   C3B 2729   5.271   4.254   3.952
  228DOPC   C4B 2730   5.231   4.253   3.651
  229DOPC   NC3 2731   0.282   9.744   5.452
  229DOPC   PO4 2732   0.322   9.806   5.152
  229DOPC   GL1 2733   0.305   9.806   4.851
  229DOPC   GL2 2734   0.428   9.624   4.851
  229DOPC   C1A 2735   0.267   9.818   4.551
  229DOPC   D2A 2736   0.283   9.727   4.252
  229DOPC   C3A 2737   0.273   9.786   3.952
  229DOPC   C4A 2738   0.298   9.790   3.651
  229DOPC   C1B 2739   0.572   9.588   4.551
  229DOPC   D2B 2740   0.613   9.525   4.252
  229DOPC   C3B 2741   0.588   9.548   3.952
  229DOPC   C4B 2742   0.547   9.585   3.651
  230DOPC   NC3 2743   5.733   2.078   5.452
  230DOPC   PO4 2744   5.719   2.067   5.152
  230DOPC   GL1 2745   5.701   2.058   4.851
  230DOPC   GL2 2746   5.800   1.983   4.851
  230DOPC   C1A 2747   5.688   2.130   4.551
  230DOPC   D2A 2748   5.665   2.132   4.252
  230DOPC   C3A 2749   5.698   2.125   3.952
  230DOPC   C4A 2750   5.684   2.134   3.651
  230DOPC   C1B 2751   5.976   1.838   4.551
  230DOPC   D2B 2752   5.993   1.825   4.252
  230DOPC   C3B 2753   5.956   1.829   3.952
  230DOPC   C4B 2754   5.956   1.890   3.651
  231DOPC   NC3 2755  13.517   9.883   5.452
  231DOPC   PO4 2756  13.493   9.816   5.152
  231DOPC   GL1 2757  13.488   9.798   4.851
  231DOPC   GL2 2758  13.510   9.680   4.851
  231DOPC   C1A 2759  13.578   9.857   4.551
  231DOPC   D2A 2760  13.543   9.826   4.252
  231DOPC   C3A 2761  13.485   9.885   3.952
  231DOPC   C4A 2762  13.566   9.804   3.651
  231DOPC   C1B 2763  13.491   9.441   4.551
  231DOPC   D2B 2764  13.537   9.449   4.252
  231DOPC   C3B 2765  13.489   9.452   3.952
  231DOPC   C4B 2766  13.444   9.505   3.651
  232DOPC   NC3 2767  19.690   5.641   5.452
  232DOPC   PO4 2768  19.727   5.630   5.152
  232DOPC   GL1 2769  19.633   5.644   4.851
  232DOPC   GL2 2770  19.674   5.793   4.851
  232DOPC   C1A 2771  19.731   5.621   4.551
  232DOPC   D2A 2772  19.722   5.609   4.252
  232DOPC   C3A 2773  19.728   5.604   3.952
  232DOPC   C4A 2774  19.648   5.666   3.651
  232DOPC   C1B 2775  19.692   5.983   4.551
  232DOPC   D2B 2776  19.599   6.020   4.252
  232DOPC   C3B 2777  19.634   5.949   3.952
  232DOPC   C4B 2778  19.672   5.956   3.651
  233DOPC   NC3 2779  13.445   7.565   5.452
  233DOPC   PO4 2780  13.410   7.545   5.152
  233DOPC   GL1 2781  13.489   7.498   4.851
  233DOPC   GL2 2782  13.528   7.319   4.851
  233DOPC   C1A 2783  13.486   7.537   4.551
  233DOPC   D2A 2784  13.447   7.526   4.252
  233DOPC   C3A 2785  13.450   7.513   3.952
  233DOPC   C4A 2786  13.470   7.479   3.651
  233DOPC   C1B 2787  13.596   7.152   4.551
  233DOPC   D2B 2788  13.622   7.237   4.252
  233DOPC   C3B 2789  13.617   7.163   3.952
  233DOPC   C4B 2790  13.547   7.178   3.651
  234DOPC   NC3 2791   0.277   0.446   5.452
  234DOPC   PO4 2792   0.239   0.429   5.152
  234DOPC   GL1 2793   0.225   0.409   4.851
  234DOPC   GL2 2794   0.405   0.386   4.851
  234DOPC   C1A 2795   0.277   0.441   4.551
  234DOPC   D2A 2796   0.223   0.452   4.252
  234DOPC   C3A 2797   0.249   0.395   3.952
  234DOPC   C4A 2798   0.266   0.378   3.651
  234DOPC   C1B 2799   0.617   0.443   4.551
  234DOPC   D2B 2800   0.648   0.406   4.252
  234DOPC   C3B 2801   0.624   0.435   3.952
  234DOPC   C4B 2802   0.566   0.413   3.651
  235DOPC   NC3 2803  18.801   2.566   5.452
  235DOPC   PO4 2804  18.832   2.582   5.152
  235DOPC   GL1 2805  18.791   2.622   4.851
  235DOPC   GL2 2806  18.879   2.719   4.851
  235DOPC   C1A 2807  18.876   2.554   4.551
  235DOPC   D2A 2808  18.852   2.542   4.252
  235DOPC   C3A 2809  18.842   2.531   3.952
  235DOPC   C4A 2810  18.858   2.597   3.651
  235DOPC   C1B 2811  18.993   2.879   4.551
  235DOPC   D2B 2812  18.977   2.914   4.252
  235DOPC   C3B 2813  18.908   2.904   3.952
  235DOPC   C4B 2814  19.000   2.937   3.651
  236DOPC   NC3 2815   5.963   5.906   5.452
  236DOPC   PO4 2816   5.954   5.942   5.152
  236DOPC   GL1 2817   5.916   5.909   4.851
  236DOPC   GL2 2818   5.803   5.844   4.851
  236DOPC   C1A 2819   5.988   5.997   4.551
  236DOPC   D2A 2820   5.946   5.977   4.252
  236DOPC   C3A 2821   5.954   5.956   3.952
  236DOPC   C4A 2822   5.992   5.984   3.651
  236DOPC   C1B 2823   5.662   5.677   4.551
  236DOPC   D2B 2824   5.696   5.673   4.252
  236DOPC   C3B 2825   5.676   5.656   3.952
  236DOPC   C4B 2826   5.668   5.658   3.651
  237DOPC   NC3 2827  19.549   2.097   5.452
  237DOPC   PO4 2828  19.601   2.092   5.152
  237DOPC   GL1 2829  19.523   2.167   4.851
  237DOPC   GL2 2830  19.652   2.022   4.851
  237DOPC   C1A 2831  19.528   2.156   4.551
  237DOPC   D2A 2832  19.567   2.075   4.252
  237DOPC   C3A 2833  19.605   2.089   3.952
  237DOPC   C4A 2834  19.549   2.165   3.651
  237DOPC   C1B 2835  19.794   1.793   4.551
  237DOPC   D2B 2836  19.733   1.843   4.252
  237DOPC   C3B 2837  19.750   1.823   3.952
  237DOPC   C4B 2838  19.723   1.784   3.651
  238DOPC   NC3 2839   8.801   7.176   5.452
  238DOPC   PO4 2840   8.795   7.194   5.152
  238DOPC   GL1 2841   8.794   7.187   4.851
  238DOPC   GL2 2842   8.919   7.344   4.851
  238DOPC   C1A 2843   8.807   7.156   4.551
  238DOPC   D2A 2844   8.838   7.185   4.252
  238DOPC   C3A 2845   8.828   7.167   3.952
  238DOPC   C4A 2846   8.845   7.229   3.651
  238DOPC   C1B 2847   8.976   7.559   4.551
  238DOPC   D2B 2848   8.940   7.531   4.252
  238DOPC   C3B 2849   8.961   7.531   3.952
  238DOPC   C4B 2850   8.934   7.479   3.651
  239DOPC   NC3 2851   1.022   1.933   5.452
  239DOPC   PO4 2852   1.041   1.957   5.152
  239DOPC   GL1 2853   1.063   1.934   4.851
  239DOPC   GL2 2854   1.165   1.960   4.851
  239DOPC   C1A 2855   1.022   1.969   4.551
  239DOPC   D2A 2856   1.080   1.937   4.252
  239DOPC   C3A 2857   1.024   1.944   3.952
  239DOPC   C4A 2858   0.984   1.912   3.651
  239DOPC   C1B 2859   1.344   2.002   4.551
  239DOPC   D2B 2860   1.335   2.001   4.252
  239DOPC   C3B 2861   1.390   1.984   3.952
  239DOPC   C4B 2862   1.372   2.003   3.651
  240DOPC   NC3 2863  11.923   2.936   5.452
  240DOPC   PO4 2864  11.932   2.925   5.152
  240DOPC   GL1 2865  11.916   2.948   4.851
  240DOPC   GL2 2866  11.942   2.787   4.851
  240DOPC   C1A 2867  11.946   2.933   4.551
  240DOPC   D2A 2868  12.007   2.924   4.252
  240DOPC   C3A 2869  11.981   2.916   3.952
  240DOPC   C4A 2870  11.920   2.947   3.651
  240DOPC   C1B 2871  11.988   2.575   4.551
  240DOPC   D2B 2872  11.974   2.610   4.252
  240DOPC   C3B 2873  12.004   2.515   3.952
  240DOPC   C4B 2874  11.940   2.535   3.651
  241DOPC   NC3 2875   6.584   3.677   5.452
  241DOPC   PO4 2876   6.552   3.696   5.152
  241DOPC   GL1 2877   6.577   3.704   4.851
  241DOPC   GL2 2878   6.637   3.494   4.851
  241DOPC   C1A 2879   6.616   3.670   4.551
  241DOPC   D2A 2880   6.607   3.675   4.252
  241DOPC   C3A 2881   6.628   3.740   3.952
  241DOPC   C4A 2882   6.559   3.724   3.651
  241DOPC   C1B 2883   6.546   3.331   4.551
  241DOPC   D2B 2884   6.629   3.308   4.252
  241DOPC   C3B 2885   6.619   3.365   3.952
  241DOPC   C4B 2886   6.613   3.331   3.651
  242DOPC   NC3 2887   5.039   0.999   5.452
  242DOPC   PO4 2888   5.036   0.997   5.152
  242DOPC   GL1 2889   5.009   1.058   4.851
  242DOPC   GL2 2890   5.005   1.236   4.851
  242DOPC   C1A 2891   5.003   0.997   4.551
  242DOPC   D2A 2892   5.017   1.017   4.252
  242DOPC   C3A 2893   5.093   1.002   3.952
  242DOPC   C4A 2894   5.059   1.061   3.651
  242DOPC   C1B 2895   5.069   1.346   4.551
  242DOPC   D2B 2896   5.036   1.352   4.252
  242DOPC   C3B 2897   5.097   1.383   3.952
  242DOPC   C4B 2898   5.017   1.413   3.651
  243DOPC   NC3 2899  16.424   5.869   5.452
  243DOPC   PO4 2900  16.469   5.855   5.152
  243DOPC   GL1 2901  16.466   5.899   4.851
  243DOPC   GL2 2902  16.553   5.830   4.851
  243DOPC   C1A 2903  16.391   5.879   4.551
  243DOPC   D2A 2904  16.394   5.858   4.252
  243DOPC   C3A 2905  16.458   5.889   3.952
  243DOPC   C4A 2906  16.433   5.928   3.651
  243DOPC   C1B 2907  16.748   5.757   4.551
  243DOPC   D2B 2908  16.787   5.744   4.252
  243DOPC   C3B 2909  16.708   5.788   3.952
  243DOPC   C4B 2910  16.773   5.736   3.651
  244DOPC   NC3 2911   4.188   8.693   5.452
  244DOPC   PO4 2912   4.236   8.683   5.152
  244DOPC   GL1 2913   4.246   8.733   4.851
  244DOPC   GL2 2914   4.288   8.888   4.851
  244DOPC   C1A 2915   4.166   8.715   4.551
  244DOPC   D2A 2916   4.241   8.764   4.252
  244DOPC   C3A 2917   4.168   8.753   3.952
  244DOPC   C4A 2918   4.220   8.725   3.651
  244DOPC   C1B 2919   4.318   9.082   4.551
  244DOPC   D2B 2920   4.355   9.103   4.252
  244DOPC   C3B 2921   4.331   9.104   3.952
  244DOPC   C4B 2922   4.392   9.069   3.651
  245DOPC   NC3 2923   8.290   1.288   5.452
  245DOPC   PO4 2924   8.338   1.273   5.152
  245DOPC   GL1 2925   8.264   1.245   4.851
  245DOPC   GL2 2926   8.122   1.237   4.851
  245DOPC   C1A 2927   8.254   1.221   4.551
  245DOPC   D2A 2928   8.342   1.266   4.252
  245DOPC   C3A 2929   8.300   1.238   3.952
  245DOPC   C4A 2930   8.334   1.256   3.651
  245DOPC   C1B 2931   7.980   1.134   4.551
  245DOPC   D2B 2932   7.960   1.108   4.252
  245DOPC   C3B 2933   7.973   1.142   3.952
  245DOPC   C4B 2934   7.949   1.106   3.651
  246DOPC   NC3 2935   0.216   8.877   5.452
  246DOPC   PO4 2936   0.300   8.855   5.152
  246DOPC   GL1 2937   0.222   8.889   4.851
  246DOPC   GL2 2938   0.435   8.901   4.851
  246DOPC   C1A 2939   0.230   8.884   4.551
  246DOPC   D2A 2940   0.291   8.909   4.252
  246DOPC   C3A 2941   0.246   8.848   3.952
  246DOPC   C4A 2942   0.222   8.887   3.651
  246DOPC   C1B 2943   0.591   8.899   4.551
  246DOPC   D2B 2944   0.567   8.960   4.252
  246DOPC   C3B 2945   0.608   8.966   3.952
  246DOPC   C4B 2946   0.606   8.917   3.651
  247DOPC   NC3 2947  19.053   9.661   5.452
  247DOPC   PO4 2948  19.059   9.650   5.152
  247DOPC   GL1 2949  19.029   9.666   4.851
  247DOPC   GL2 2950  18.918   9.657   4.851
  247DOPC   C1A 2951  19.056   9.629   4.551
  247DOPC   D2A 2952  19.109   9.605   4.252
  247DOPC   C3A 2953  19.111   9.607   3.952
  247DOPC   C4A 2954  19.041   9.649   3.651
  247DOPC   C1B 2955  18.681   9.694   4.551
  247DOPC   D2B 2956  18.681   9.680   4.252
  247DOPC   C3B 2957  18.758   9.640   3.952
  247DOPC   C4B 2958  18.749   9.703   3.651
  248DOPC   NC3 2959  15.936   5.924   5.452
  248DOPC   PO4 2960  15.993   5.916   5.152
  248DOPC   GL1 2961  15.970   5.834   4.851
  248DOPC   GL2 2962  15.861   5.776   4.851
  248DOPC   C1A 2963  15.984   5.844   4.551
  248DOPC   D2A 2964  16.025   5.855   4.252
  248DOPC   C3A 2965  16.022   5.903   3.952
  248DOPC   C4A 2966  16.005   5.886   3.651
  248DOPC   C1B 2967  15.632   5.766   4.551
  248DOPC   D2B 2968  15.679   5.799   4.252
  248DOPC   C3B 2969  15.686   5.761   3.952
  248DOPC   C4B 2970  15.701   5.790   3.651
  249DOPC   NC3 2971   7.498   4.126   5.452
  249DOPC   PO4 2972   7.482   4.195   5.152
  249DOPC   GL1 2973   7.531   4.169   4.851
  249DOPC   GL2 2974   7.317   4.295   4.851
  249DOPC   C1A 2975   7.496   4.179   4.551
  249DOPC   D2A 2976   7.516   4.152   4.252
  249DOPC   C3A 2977   7.502   4.170   3.952
  249DOPC   C4A 2978   7.473   4.195   3.651
  249DOPC   C1B 2979   7.227   4.383   4.551
  249DOPC   D2B 2980   7.209   4.443   4.252
  249DOPC   C3B 2981   7.186   4.390   3.952
  249DOPC   C4B 2982   7.188   4.356   3.651
  250DOPC   NC3 2983   8.812   2.556   5.452
  250DOPC   PO4 2984   8.836   2.620   5.152
  250DOPC   GL1 2985   8.799   2.601   4.851
  250DOPC   GL2 2986   8.873   2.730   4.851
  250DOPC   C1A 2987   8.771   2.582   4.551
  250DOPC   D2A 2988   8.850   2.608   4.252
  250DOPC   C3A 2989   8.830   2.616   3.952
  250DOPC   C4A 2990   8.857   2.557   3.651
  250DOPC   C1B 2991   8.931   2.884   4.551
  250DOPC   D2B 2992   8.958   2.893   4.252
  250DOPC   C3B 2993   8.975   2.869   3.952
  250DOPC   C4B 2994   9.014   2.897   3.651
  251DOPC   NC3 2995   1.976   2.592   5.452
  251DOPC   PO4 2996   1.905   2.533   5.152
  251DOPC   GL1 2997   1.963   2.614   4.851
  251DOPC   GL2 2998   1.954   2.695   4.851
  251DOPC   C1A 2999   1.917   2.597   4.551
  251DOPC   D2A 3000   1.993   2.520   4.252
  251DOPC   C3A 3001   1.958   2.584   3.952
  251DOPC   C4A 3002   1.908   2.581   3.651
  251DOPC   C1B 3003   2.037   2.903   4.551
  251DOPC   D2B 3004   2.010   2.941   4.252
  251DOPC   C3B 3005   2.043   2.883   3.952
  251DOPC   C4B 3006   1.966   2.951   3.651
  252DOPC   NC3 3007   7.441   9.455   5.452
  252DOPC   PO4 3008   7.441   9.477   5.152
  252DOPC   GL1 3009   7.369   9.481   4.851
  252DOPC   GL2 3010   7.405   9.626   4.851
  252DOPC   C1A 3011   7.407   9.507   4.551
  252DOPC   D2A 3012   7.422   9.496   4.252
  252DOPC   C3A 3013   7.451   9.449   3.952
  252DOPC   C4A 3014   7.395   9.459   3.651
  252DOPC   C1B 3015   7.283   9.806   4.551
  252DOPC   D2B 3016   7.274   9.804   4.252
  252DOPC   C3B 3017   7.269   9.855   3.952
  252DOPC   C4B 3018   7.335   9.807   3.651
  253DOPC   NC3 3019  18.342   7.277   5.452
  253DOPC   PO4 3020  18.265   7.332   5.152
  253DOPC   GL1 3021  18.339   7.363   4.851
  253DOPC   GL2 3022  18.145   7.393   4.851
  253DOPC   C1A 3023  18.288   7.331   4.551
  253DOPC   D2A 3024  18.278   7.302   4.252
  253DOPC   C3A 3025  18.330   7.277   3.952
  253DOPC   C4A 3026  18.290   7.282   3.651
  253DOPC   C1B 3027  17.965   7.360   4.551
  253DOPC   D2B 3028  17.987   7.349   4.252
  253DOPC   C3B 3029  17.996   7.374   3.952
  253DOPC   C4B 3030  17.956   7.373   3.651
  254DOPC   NC3 3031   4.239   1.399   5.452
  254DOPC   PO4 3032   4.304   1.365   5.152
  254DOPC   GL1 3033   4.283   1.334   4.851
  254DOPC   GL2 3034   4.270   1.177   4.851
  254DOPC   C1A 3035   4.318   1.345   4.551
  254DOPC   D2A 3036   4.247   1.422   4.252
  254DOPC   C3A 3037   4.242   1.392   3.952
  254DOPC   C4A 3038   4.272   1.386   3.651
  254DOPC   C1B 3039   4.339   1.018   4.551
  254DOPC   D2B 3040   4.319   1.075   4.252
  254DOPC   C3B 3041   4.248   1.062   3.952
  254DOPC   C4B 3042   4.342   0.996   3.651
  255DOPC   NC3 3043  19.615   6.452   5.452
  255DOPC   PO4 3044  19.632   6.377   5.152
  255DOPC   GL1 3045  19.581   6.377   4.851
  255DOPC   GL2 3046  19.660   6.610   4.851
  255DOPC   C1A 3047  19.601   6.454   4.551
  255DOPC   D2A 3048  19.628   6.458   4.252
  255DOPC   C3A 3049  19.626   6.416   3.952
  255DOPC   C4A 3050  19.645   6.472   3.651
  255DOPC   C1B 3051  19.775   6.759   4.551
  255DOPC   D2B 3052  19.695   6.793   4.252
  255DOPC   C3B 3053  19.701   6.734   3.952
  255DOPC   C4B 3054  19.743   6.751   3.651
  256DOPC   NC3 3055  15.198   1.345   5.452
  256DOPC   PO4 3056  15.142   1.357   5.152
  256DOPC   GL1 3057  15.150   1.298   4.851
  256DOPC   GL2 3058  15.071   1.156   4.851
  256DOPC   C1A 3059  15.198   1.390   4.551
  256DOPC   D2A 3060  15.151   1.309   4.252
  256DOPC   C3A 3061  15.190   1.313   3.952
  256DOPC   C4A 3062  15.168   1.292   3.651
  256DOPC   C1B 3063  14.979   1.086   4.551
  256DOPC   D2B 3064  14.917   1.051   4.252
  256DOPC   C3B 3065  14.890   1.043   3.952
  256DOPC   C4B 3066  14.934   1.075   3.651
  257DOPC   NC3 3067  18.026   4.160   5.452
  257DOPC   PO4 3068  18.097   4.132   5.152
  257DOPC   GL1 3069  18.088   4.123   4.851
  257DOPC   GL2 3070  18.163   4.259   4.851
  257DOPC   C1A 3071  18.018   4.102   4.551
  257DOPC   D2A 3072  18.006   4.140   4.252
  257DOPC   C3A 3073  18.049   4.136   3.952
  257DOPC   C4A 3074  18.048   4.141   3.651
  257DOPC   C1B 3075  18.207   4.408   4.551
  257DOPC   D2B 3076  18.196   4.436   4.252
  257DOPC   C3B 3077  18.203   4.398   3.952
  257DOPC   C4B 3078  18.250   4.417   3.651
  258DOPC   NC3 3079   4.190   8.251   5.452
  258DOPC   PO4 3080   4.175   8.270   5.152
  258DOPC   GL1 3081   4.242   8.236   4.851
  258DOPC   GL2 3082   4.283   8.152   4.851
  258DOPC   C1A 3083   4.180   8.275   4.551
  258DOPC   D2A 3084   4.206   8.330   4.252
  258DOPC   C3A 3085   4.153   8.251   3.952
  258DOPC   C4A 3086   4.208   8.302   3.651
  258DOPC   C1B 3087   4.321   7.935   4.551
  258DOPC   D2B 3088   4.375   7.943   4.252
  258DOPC   C3B 3089   4.337   7.949   3.952
  258DOPC   C4B 3090   4.358   7.956   3.651
  259DOPC   NC3 3091  11.036   8.987   5.452
  259DOPC   PO4 3092  11.007   8.997   5.152
  259DOPC   GL1 3093  11.058   8.937   4.851
  259DOPC   GL2 3094  11.159   8.925   4.851
  259DOPC   C1A 3095  11.085   8.959   4.551
  259DOPC   D2A 3096  11.069   8.965   4.252
  259DOPC   C3A 3097  11.007   9.022   3.952
  259DOPC   C4A 3098  11.038   9.011   3.651
  259DOPC   C1B 3099  11.330   8.839   4.551
  259DOPC   D2B 3100  11.320   8.767   4.252
  259DOPC   C3B 3101  11.358   8.854   3.952
  259DOPC   C4B 3102  11.373   8.848   3.651
  260DOPC   NC3 3103  19.511   0.368   5.452
  260DOPC   PO4 3104  19.474   0.411   5.152
  260DOPC   GL1 3105  19.540   0.386   4.851
  260DOPC   GL2 3106  19.662   0.478   4.851
  260DOPC   C1A 3107  19.533   0.383   4.551
  260DOPC   D2A 3108  19.514   0.333   4.252
  260DOPC   C3A 3109  19.546   0.342   3.952
  260DOPC   C4A 3110  19.500   0.352   3.651
  260DOPC   C1B 3111  19.809   0.553   4.551
  260DOPC   D2B 3112  19.851   0.479   4.252
  260DOPC   C3B 3113  19.871   0.546   3.952
  260DOPC   C4B 3114  19.822   0.480   3.651
  261DOPC   NC3 3115  17.938   2.820   5.452
  261DOPC   PO4 3116  17.965   2.821   5.152
  261DOPC   GL1 3117  18.013   2.853   4.851
  261DOPC   GL2 3118  18.112   2.712   4.851
  261DOPC   C1A 3119  17.930   2.801   4.551
  261DOPC   D2A 3120  17.971   2.790   4.252
  261DOPC   C3A 3121  17.982   2.844   3.952
  261DOPC   C4A 3122  18.014   2.803   3.651
  261DOPC   C1B 3123  18.251   2.656   4.551
  261DOPC   D2B 3124  18.293   2.658   4.252
  261DOPC   C3B 3125  18.272   2.651   3.952
  261DOPC   C4B 3126  18.249   2.706   3.651
  262DOPC   NC3 3127   7.282   9.078   5.452
  262DOPC   PO4 3128   7.280   9.045   5.152
  262DOPC   GL1 3129   7.230   9.031   4.851
  262DOPC   GL2 3130   7.345   8.915   4.851
  262DOPC   C1A 3131   7.315   9.039   4.551
  262DOPC   D2A 3132   7.263   9.031   4.252
  262DOPC   C3A 3133   7.276   9.046   3.952
  262DOPC   C4A 3134   7.302   9.066   3.651
  262DOPC   C1B 3135   7.431   8.689   4.551
  262DOPC   D2B 3136   7.431   8.692   4.252
  262DOPC   C3B 3137   7.486   8.694   3.952
  262DOPC   C4B 3138   7.399   8.737   3.651
  263DOPC   NC3 3139  18.986   4.862   5.452
  263DOPC   PO4 3140  18.927   4.846   5.152
  263DOPC   GL1 3141  18.930   4.861   4.851
  263DOPC   GL2 3142  18.857   5.025   4.851
  263DOPC   C1A 3143  18.945   4.868   4.551
  263DOPC   D2A 3144  18.955   4.854   4.252
  263DOPC   C3A 3145  18.991   4.915   3.952
  263DOPC   C4A 3146  18.960   4.839   3.651
  263DOPC   C1B 3147  18.834   5.187   4.551
  263DOPC   D2B 3148  18.830   5.197   4.252
  263DOPC   C3B 3149  18.807   5.173   3.952
  263DOPC   C4B 3150  18.847   5.254   3.651
  264DOPC   NC3 3151  19.645   1.034   5.452
  264DOPC   PO4 3152  19.634   1.028   5.152
  264DOPC   GL1 3153  19.605   0.981   4.851
  264DOPC   GL2 3154  19.676   1.215   4.851
  264DOPC   C1A 3155  19.661   1.075   4.551
  264DOPC   D2A 3156  19.619   1.037   4.252
  264DOPC   C3A 3157  19.674   0.994   3.952
  264DOPC   C4A 3158  19.640   1.071   3.651
  264DOPC   C1B 3159  19.661   1.380   4.551
  264DOPC   D2B 3160  19.695   1.350   4.252
  264DOPC   C3B 3161  19.734   1.409   3.952
  264DOPC   C4B 3162  19.689   1.423   3.651
  265DOPC   NC3 3163  14.370   1.047   5.452
  265DOPC   PO4 3164  14.357   1.086   5.152
  265DOPC   GL1 3165  14.349   1.024   4.851
  265DOPC   GL2 3166  14.318   1.215   4.851
  265DOPC   C1A 3167  14.364   1.073   4.551
  265DOPC   D2A 3168  14.305   1.007   4.252
  265DOPC   C3A 3169  14.373   1.004   3.952
  265DOPC   C4A 3170  14.294   1.025   3.651
  265DOPC   C1B 3171  14.225   1.368   4.551
  265DOPC   D2B 3172  14.254   1.383   4.252
  265DOPC   C3B 3173  14.195   1.416   3.952
  265DOPC   C4B 3174  14.246   1.397   3.651
  266DOPC   NC3 3175   1.113   7.985   5.452
  266DOPC   PO4 3176   1.168   7.963   5.152
  266DOPC   GL1 3177   1.183   7.916   4.851
  266DOPC   GL2 3178   1.253   8.088   4.851
  266DOPC   C1A 3179   1.158   7.998   4.551
  266DOPC   D2A 3180   1.202   7.911   4.252
  266DOPC   C3A 3181   1.189   7.966   3.952
  266DOPC   C4A 3182   1.207   7.942   3.651
  266DOPC   C1B 3183   1.295   8.321   4.551
  266DOPC   D2B 3184   1.208   8.252   4.252
  266DOPC   C3B 3185   1.288   8.336   3.952
  266DOPC   C4B 3186   1.202   8.333   3.651
  267DOPC   NC3 3187   3.664   8.202   5.452
  267DOPC   PO4 3188   3.687   8.257   5.152
  267DOPC   GL1 3189   3.655   8.279   4.851
  267DOPC   GL2 3190   3.524   8.134   4.851
  267DOPC   C1A 3191   3.629   8.201   4.551
  267DOPC   D2A 3192   3.638   8.193   4.252
  267DOPC   C3A 3193   3.628   8.260   3.952
  267DOPC   C4A 3194   3.610   8.276   3.651
  267DOPC   C1B 3195   3.334   8.020   4.551
  267DOPC   D2B 3196   3.384   7.969   4.252
  267DOPC   C3B 3197   3.348   8.053   3.952
  267DOPC   C4B 3198   3.412   7.981   3.651
  268DOPC   NC3 3199  10.218   5.856   5.452
  268DOPC   PO4 3200  10.299   5.803   5.152
  268DOPC   GL1 3201  10.248   5.800   4.851
  268DOPC   GL2 3202  10.440   5.805   4.851
  268DOPC   C1A 3203  10.251   5.772   4.551
  268DOPC   D2A 3204  10.234   5.834   4.252
  268DOPC   C3A 3205  10.295   5.820   3.952
  268DOPC   C4A 3206  10.272   5.778   3.651
  268DOPC   C1B 3207  10.655   5.798   4.551
  268DOPC   D2B 3208  10.584   5.801   4.252
  268DOPC   C3B 3209  10.578   5.796   3.952
  268DOPC   C4B 3210  10.610   5.810   3.651
  269DOPC   NC3 3211  16.381   8.906   5.452
  269DOPC   PO4 3212  16.419   8.969   5.152
  269DOPC   GL1 3213  16.398   9.003   4.851
  269DOPC   GL2 3214  16.540   8.897   4.851
  269DOPC   C1A 3215  16.373   8.938   4.551
  269DOPC   D2A 3216  16.417   8.937   4.252
  269DOPC   C3A 3217  16.421   8.997   3.952
  269DOPC   C4A 3218  16.451   8.955   3.651
  269DOPC   C1B 3219  16.766   8.854   4.551
  269DOPC   D2B 3220  16.775   8.884   4.252
  269DOPC   C3B 3221  16.743   8.825   3.952
  269DOPC   C4B 3222  16.802   8.845   3.651
  270DOPC   NC3 3223  11.169   9.888   5.452
  270DOPC   PO4 3224  11.213   9.861   5.152
  270DOPC   GL1 3225  11.196   9.803   4.851
  270DOPC   GL2 3226  11.208   9.702   4.851
  270DOPC   C1A 3227  11.152   9.847   4.551
  270DOPC   D2A 3228  11.154   9.802   4.252
  270DOPC   C3A 3229  11.188   9.850   3.952
  270DOPC   C4A 3230  11.229   9.875   3.651
  270DOPC   C1B 3231  11.250   9.503   4.551
  270DOPC   D2B 3232  11.247   9.468   4.252
  270DOPC   C3B 3233  11.236   9.508   3.952
  270DOPC   C4B 3234  11.203   9.522   3.651
  271DOPC   NC3 3235  13.699   2.849   5.452
  271DOPC   PO4 3236  13.724   2.790   5.152
  271DOPC   GL1 3237  13.721   2.802   4.851
  271DOPC   GL2 3238  13.531   2.789   4.851
  271DOPC   C1A 3239  13.654   2.755   4.551
  271DOPC   D2A 3240  13.693   2.819   4.252
  271DOPC   C3A 3241  13.653   2.853   3.952
  271DOPC   C4A 3242  13.662   2.838   3.651
  271DOPC   C1B 3243  13.346   2.647   4.551
  271DOPC   D2B 3244  13.301   2.730   4.252
  271DOPC   C3B 3245  13.307   2.660   3.952
  271DOPC   C4B 3246  13.336   2.685   3.651
  272DOPC   NC3 3247  17.185   7.421   5.452
  272DOPC   PO4 3248  17.236   7.424   5.152
  272DOPC   GL1 3249  17.149   7.480   4.851
  272DOPC   GL2 3250  17.363   7.315   4.851
  272DOPC   C1A 3251  17.163   7.403   4.551
  272DOPC   D2A 3252  17.189   7.458   4.252
  272DOPC   C3A 3253  17.166   7.464   3.952
  272DOPC   C4A 3254  17.203   7.399   3.651
  272DOPC   C1B 3255  17.524   7.314   4.551
  272DOPC   D2B 3256  17.539   7.317   4.252
  272DOPC   C3B 3257  17.559   7.236   3.952
  272DOPC   C4B 3258  17.470   7.281   3.651
  273DOPC   NC3 3259  12.932   7.354   5.452
  273DOPC   PO4 3260  12.895   7.306   5.152
  273DOPC   GL1 3261  12.950   7.275   4.851
  273DOPC   GL2 3262  12.768   7.402   4.851
  273DOPC   C1A 3263  12.949   7.280   4.551
  273DOPC   D2A 3264  12.939   7.269   4.252
  273DOPC   C3A 3265  12.936   7.309   3.952
  273DOPC   C4A 3266  12.877   7.322   3.651
  273DOPC   C1B 3267  12.559   7.418   4.551
  273DOPC   D2B 3268  12.550   7.383   4.252
  273DOPC   C3B 3269  12.574   7.357   3.952
  273DOPC   C4B 3270  12.583   7.425   3.651
  274DOPC   NC3 3271   6.610   0.601   5.452
  274DOPC   PO4 3272   6.623   0.587   5.152
  274DOPC   GL1 3273   6.648   0.570   4.851
  274DOPC   GL2 3274   6.600   0.421   4.851
  274DOPC   C1A 3275   6.684   0.619   4.551
  274DOPC   D2A 3276   6.647   0.581   4.252
  274DOPC   C3A 3277   6.699   0.600   3.952
  274DOPC   C4A 3278   6.664   0.570   3.651
  274DOPC   C1B 3279   6.476   0.301   4.551
  274DOPC   D2B 3280   6.481   0.287   4.252
  274DOPC   C3B 3281   6.482   0.226   3.952
  274DOPC   C4B 3282   6.473   0.222   3.651
  275DOPC   NC3 3283  15.129   7.496   5.452
  275DOPC   PO4 3284  15.155   7.533   5.152
  275DOPC   GL1 3285  15.082   7.573   4.851
  275DOPC   GL2 3286  15.042   7.344   4.851
  275DOPC   C1A 3287  15.060   7.532   4.551
  275DOPC   D2A 3288  15.108   7.576   4.252
  275DOPC   C3A 3289  15.144   7.560   3.952
  275DOPC   C4A 3290  15.137   7.506   3.651
  275DOPC   C1B 3291  14.944   7.220   4.551
  275DOPC   D2B 3292  14.949   7.148   4.252
  275DOPC   C3B 3293  14.983   7.180   3.952
  275DOPC   C4B 3294  14.999   7.176   3.651
  276DOPC   NC3 3295  10.353   0.606   5.452
  276DOPC   PO4 3296  10.299   0.571   5.152
  276DOPC   GL1 3297  10.316   0.613   4.851
  276DOPC   GL2 3298  10.455   0.387   4.851
  276DOPC   C1A 3299  10.338   0.603   4.551
  276DOPC   D2A 3300  10.319   0.544   4.252
  276DOPC   C3A 3301  10.324   0.616   3.952
  276DOPC   C4A 3302  10.311   0.602   3.651
  276DOPC   C1B 3303  10.535   0.273   4.551
  276DOPC   D2B 3304  10.574   0.290   4.252
  276DOPC   C3B 3305  10.545   0.275   3.952
  276DOPC   C4B 3306  10.578   0.290   3.651
  277DOPC   NC3 3307   4.070   5.869   5.452
  277DOPC   PO4 3308   4.086   5.828   5.152
  277DOPC   GL1 3309   4.130   5.866   4.851
  277DOPC   GL2 3310   4.302   5.844   4.851
  277DOPC   C1A 3311   4.129   5.874   4.551
  277DOPC   D2A 3312   4.090   5.889   4.252
  277DOPC   C3A 3313   4.138   5.887   3.952
  277DOPC   C4A 3314   4.093   5.833   3.651
  277DOPC   C1B 3315   4.459   5.758   4.551
  277DOPC   D2B 3316   4.495   5.773   4.252
  277DOPC   C3B 3317   4.472   5.820   3.952
  277DOPC   C4B 3318   4.466   5.740   3.651
  278DOPC   NC3 3319  19.781   8.260   5.452
  278DOPC   PO4 3320  19.790   8.333   5.152
  278DOPC   GL1 3321  19.737   8.251   4.851
  278DOPC   GL2 3322  19.696   8.109   4.851
  278DOPC   C1A 3323  19.724   8.286   4.551
  278DOPC   D2A 3324  19.731   8.303   4.252
  278DOPC   C3A 3325  19.764   8.242   3.952
  278DOPC   C4A 3326  19.795   8.271   3.651
  278DOPC   C1B 3327  19.543   7.928   4.551
  278DOPC   D2B 3328  19.533   7.949   4.252
  278DOPC   C3B 3329  19.561   7.932   3.952
  278DOPC   C4B 3330  19.557   8.013   3.651
  279DOPC   NC3 3331  15.205   5.021   5.452
  279DOPC   PO4 3332  15.247   5.020   5.152
  279DOPC   GL1 3333  15.194   5.043   4.851
  279DOPC   GL2 3334  15.014   5.027   4.851
  279DOPC   C1A 3335  15.188   4.961   4.551
  279DOPC   D2A 3336  15.191   5.007   4.252
  279DOPC   C3A 3337  15.194   5.027   3.952
  279DOPC   C4A 3338  15.269   4.954   3.651
  279DOPC   C1B 3339  14.868   5.151   4.551
  279DOPC   D2B 3340  14.868   5.060   4.252
  279DOPC   C3B 3341  14.905   5.112   3.952
  279DOPC   C4B 3342  14.880   5.149   3.651
  280DOPC   NC3 3343   4.259   9.891   5.452
  280DOPC   PO4 3344   4.282   9.811   5.152
  280DOPC   GL1 3345   4.318   9.862   4.851
  280DOPC   GL2 3346   4.261   9.708   4.851
  280DOPC   C1A 3347   4.336   9.829   4.551
  280DOPC   D2A 3348   4.340   9.829   4.252
  280DOPC   C3A 3349   4.325   9.813   3.952
  280DOPC   C4A 3350   4.316   9.885   3.651
  280DOPC   C1B 3351   4.221   9.441   4.551
  280DOPC   D2B 3352   4.263   9.452   4.252
  280DOPC   C3B 3353   4.254   9.486   3.952
  280DOPC   C4B 3354   4.295   9.521   3.651
  281DOPC   NC3 3355   8.899   1.367   5.452
  281DOPC   PO4 3356   8.866   1.389   5.152
  281DOPC   GL1 3357   8.959   1.377   4.851
  281DOPC   GL2 3358   8.893   1.252   4.851
  281DOPC   C1A 3359   8.917   1.373   4.551
  281DOPC   D2A 3360   8.902   1.338   4.252
  281DOPC   C3A 3361   8.890   1.374   3.952
  281DOPC   C4A 3362   8.951   1.339   3.651
  281DOPC   C1B 3363   8.892   1.033   4.551
  281DOPC   D2B 3364   8.876   1.074   4.252
  281DOPC   C3B 3365   8.841   1.068   3.952
  281DOPC   C4B 3366   8.882   0.997   3.651
  282DOPC   NC3 3367   6.637   8.698   5.452
  282DOPC   PO4 3368   6.709   8.782   5.152
  282DOPC   GL1 3369   6.698   8.763   4.851
  282DOPC   GL2 3370   6.567   8.891   4.851
  282DOPC   C1A 3371   6.701   8.688   4.551
  282DOPC   D2A 3372   6.674   8.727   4.252
  282DOPC   C3A 3373   6.664   8.693   3.952
  282DOPC   C4A 3374   6.643   8.754   3.651
  282DOPC   C1B 3375   6.473   9.075   4.551
  282DOPC   D2B 3376   6.512   9.088   4.252
  282DOPC   C3B 3377   6.489   9.045   3.952
  282DOPC   C4B 3378   6.507   9.084   3.651
  283DOPC   NC3 3379  10.606   8.082   5.452
  283DOPC   PO4 3380  10.626   8.092   5.152
  283DOPC   GL1 3381  10.611   8.144   4.851
  283DOPC   GL2 3382  10.467   8.162   4.851
  283DOPC   C1A 3383  10.653   8.093   4.551
  283DOPC   D2A 3384  10.576   8.096   4.252
  283DOPC   C3A 3385  10.660   8.074   3.952
  283DOPC   C4A 3386  10.622   8.093   3.651
  283DOPC   C1B 3387  10.231   8.155   4.551
  283DOPC   D2B 3388  10.277   8.139   4.252
  283DOPC   C3B 3389  10.279   8.110   3.952
  283DOPC   C4B 3390  10.272   8.177   3.651
  284DOPC   NC3 3391   1.852   3.611   5.452
  284DOPC   PO4 3392   1.822   3.625   5.152
  284DOPC   GL1 3393   1.863   3.602   4.851
  284DOPC   GL2 3394   1.932   3.499   4.851
  284DOPC   C1A 3395   1.827   3.655   4.551
  284DOPC   D2A 3396   1.835   3.607   4.252
  284DOPC   C3A 3397   1.813   3.609   3.952
  284DOPC   C4A 3398   1.852   3.661   3.651
  284DOPC   C1B 3399   2.082   3.429   4.551
  284DOPC   D2B 3400   2.126   3.388   4.252
  284DOPC   C3B 3401   2.136   3.346   3.952
  284DOPC   C4B 3402   2.155   3.372   3.651
  285DOPC   NC3 3403  18.700   3.464   5.452
  285DOPC   PO4 3404  18.782   3.462   5.152
  285DOPC   GL1 3405  18.706   3.400   4.851
  285DOPC   GL2 3406  18.912   3.542   4.851
  285DOPC   C1A 3407  18.784   3.418   4.551
  285DOPC   D2A 3408  18.778   3.441   4.252
  285DOPC   C3A 3409  18.757   3.455   3.952
  285DOPC   C4A 3410  18.721   3.450   3.651
  285DOPC   C1B 3411  19.033   3.633   4.551
  285DOPC   D2B 3412  19.028   3.623   4.252
  285DOPC   C3B 3413  19.024   3.629   3.952
  285DOPC   C4B 3414  19.038   3.626   3.651
  286DOPC   NC3 3415   1.908   1.375   5.452
  286DOPC   PO4 3416   1.942   1.367   5.152
  286DOPC   GL1 3417   1.900   1.415   4.851
  286DOPC   GL2 3418   1.989   1.248   4.851
  286DOPC   C1A 3419   1.939   1.393   4.551
  286DOPC   D2A 3420   1.962   1.412   4.252
  286DOPC   C3A 3421   1.933   1.420   3.952
  286DOPC   C4A 3422   1.927   1.422   3.651
  286DOPC   C1B 3423   1.973   1.014   4.551
  286DOPC   D2B 3424   1.986   1.043   4.252
  286DOPC   C3B 3425   2.043   1.079   3.952
  286DOPC   C4B 3426   2.028   1.002   3.651
  287DOPC   NC3 3427   4.363   4.120   5.452
  287DOPC   PO4 3428   4.344   4.116   5.152
  287DOPC   GL1 3429   4.361   4.071   4.851
  287DOPC   GL2 3430   4.320   4.288   4.851
  287DOPC   C1A 3431   4.356   4.120   4.551
  287DOPC   D2A 3432   4.310   4.105   4.252
  287DOPC   C3A 3433   4.298   4.146   3.952
  287DOPC   C4A 3434   4.316   4.070   3.651
  287DOPC   C1B 3435   4.186   4.413   4.551
  287DOPC   D2B 3436   4.223   4.426   4.252
  287DOPC   C3B 3437   4.250   4.487   3.952
  287DOPC   C4B 3438   4.197   4.412   3.651
  288DOPC   NC3 3439  11.801   7.327   5.452
  288DOPC   PO4 3440  11.773   7.363   5.152
  288DOPC   GL1 3441  11.766   7.393   4.851
  288DOPC   GL2 3442  11.967   7.355   4.851
  288DOPC   C1A 3443  11.805   7.406   4.551
  288DOPC   D2A 3444  11.797   7.411   4.252
  288DOPC   C3A 3445  11.793   7.368   3.952
  288DOPC   C4A 3446  11.788   7.414   3.651
  288DOPC   C1B 3447  12.150   7.334   4.551
  288DOPC   D2B 3448  12.186   7.384   4.252
  288DOPC   C3B 3449  12.125   7.338   3.952
  288DOPC   C4B 3450  12.154   7.386   3.651
  289DOPC   NC3 3451  17.309   2.148   5.452
  289DOPC   PO4 3452  17.318   2.099   5.152
  289DOPC   GL1 3453  17.352   2.151   4.851
  289DOPC   GL2 3454  17.344   1.991   4.851
  289DOPC   C1A 3455  17.270   2.106   4.551
  289DOPC   D2A 3456  17.304   2.106   4.252
  289DOPC   C3A 3457  17.277   2.157   3.952
  289DOPC   C4A 3458  17.276   2.145   3.651
  289DOPC   C1B 3459  17.392   1.805   4.551
  289DOPC   D2B 3460  17.370   1.815   4.252
  289DOPC   C3B 3461  17.404   1.818   3.952
  289DOPC   C4B 3462  17.381   1.838   3.651
  290DOPC   NC3 3463  15.904   1.080   5.452
  290DOPC   PO4 3464  15.931   1.013   5.152
  290DOPC   GL1 3465  15.927   1.027   4.851
  290DOPC   GL2 3466  15.860   1.155   4.851
  290DOPC   C1A 3467  15.892   1.089   4.551
  290DOPC   D2A 3468  15.870   1.044   4.252
  290DOPC   C3A 3469  15.962   1.022   3.952
  290DOPC   C4A 3470  15.925   1.040   3.651
  290DOPC   C1B 3471  15.741   1.326   4.551
  290DOPC   D2B 3472  15.698   1.307   4.252
  290DOPC   C3B 3473  15.717   1.391   3.952
  290DOPC   C4B 3474  15.754   1.310   3.651
  291DOPC   NC3 3475   0.366   1.346   5.452
  291DOPC   PO4 3476   0.324   1.382   5.152
  291DOPC   GL1 3477   0.333   1.330   4.851
  291DOPC   GL2 3478   0.421   1.229   4.851
  291DOPC   C1A 3479   0.311   1.362   4.551
  291DOPC   D2A 3480   0.310   1.349   4.252
  291DOPC   C3A 3481   0.384   1.380   3.952
  291DOPC   C4A 3482   0.356   1.385   3.651
  291DOPC   C1B 3483   0.537   1.002   4.551
  291DOPC   D2B 3484   0.546   1.005   4.252
  291DOPC   C3B 3485   0.517   1.012   3.952
  291DOPC   C4B 3486   0.477   1.064   3.651
  292DOPC   NC3 3487  15.771   2.115   5.452
  292DOPC   PO4 3488  15.704   2.111   5.152
  292DOPC   GL1 3489  15.729   2.121   4.851
  292DOPC   GL2 3490  15.840   1.978   4.851
  292DOPC   C1A 3491  15.782   2.140   4.551
  292DOPC   D2A 3492  15.740   2.087   4.252
  292DOPC   C3A 3493  15.776   2.112   3.952
  292DOPC   C4A 3494  15.703   2.181   3.651
  292DOPC   C1B 3495  15.869   1.861   4.551
  292DOPC   D2B 3496  15.941   1.863   4.252
  292DOPC   C3B 3497  15.883   1.764   3.952
  292DOPC   C4B 3498  15.945   1.770   3.651
  293DOPC   NC3 3499   1.257   9.525   5.452
  293DOPC   PO4 3500   1.276   9.521   5.152
  293DOPC   GL1 3501   1.266   9.453   4.851
  293DOPC   GL2 3502   1.211   9.714   4.851
  293DOPC   C1A 3503   1.296   9.537   4.551
  293DOPC   D2A 3504   1.262   9.462   4.252
  293DOPC   C3A 3505   1.251   9.474   3.952
  293DOPC   C4A 3506   1.233   9.499   3.651
  293DOPC   C1B 3507   1.102   9.833   4.551
  293DOPC   D2B 3508   1.110   9.866   4.252
  293DOPC   C3B 3509   1.171   9.863   3.952
  293DOPC   C4B 3510   1.179   9.883   3.651
  294DOPC   NC3 3511  12.014   1.381   5.452
  294DOPC   PO4 3512  12.055   1.361   5.152
  294DOPC   GL1 3513  12.062   1.423   4.851
  294DOPC   GL2 3514  11.929   1.194   4.851
  294DOPC   C1A 3515  12.049   1.349   4.551
  294DOPC   D2A 3516  12.029   1.395   4.252
  294DOPC   C3A 3517  11.991   1.406   3.952
  294DOPC   C4A 3518  11.992   1.383   3.651
  294DOPC   C1B 3519  11.884   1.009   4.551
  294DOPC   D2B 3520  11.934   1.076   4.252
  294DOPC   C3B 3521  11.907   0.990   3.952
  294DOPC   C4B 3522  11.955   0.983   3.651
  295DOPC   NC3 3523   6.368   8.163   5.452
  295DOPC   PO4 3524   6.384   8.197   5.152
  295DOPC   GL1 3525   6.380   8.185   4.851
  295DOPC   GL2 3526   6.624   8.137   4.851
  295DOPC   C1A 3527   6.450   8.117   4.551
  295DOPC   D2A 3528   6.418   8.198   4.252
  295DOPC   C3A 3529   6.458   8.168   3.952
  295DOPC   C4A 3530   6.418   8.155   3.651
  295DOPC   C1B 3531   6.754   8.106   4.551
  295DOPC   D2B 3532   6.737   8.087   4.252
  295DOPC   C3B 3533   6.718   8.060   3.952
  295DOPC   C4B 3534   6.771   8.101   3.651
  296DOPC   NC3 3535  16.726   6.640   5.452
  296DOPC   PO4 3536  16.750   6.648   5.152
  296DOPC   GL1 3537  16.750   6.714   4.851
  296DOPC   GL2 3538  16.580   6.633   4.851
  296DOPC   C1A 3539  16.782   6.672   4.551
  296DOPC   D2A 3540  16.780   6.643   4.252
  296DOPC   C3A 3541  16.790   6.681   3.952
  296DOPC   C4A 3542  16.792   6.685   3.651
  296DOPC   C1B 3543  16.382   6.499   4.551
  296DOPC   D2B 3544  16.445   6.518   4.252
  296DOPC   C3B 3545  16.389   6.528   3.952
  296DOPC   C4B 3546  16.414   6.529   3.651
  297DOPC   NC3 3547  10.336   4.137   5.452
  297DOPC   PO4 3548  10.329   4.168   5.152
  297DOPC   GL1 3549  10.294   4.092   4.851
  297DOPC   GL2 3550  10.428   4.299   4.851
  297DOPC   C1A 3551  10.368   4.161   4.551
  297DOPC   D2A 3552  10.388   4.090   4.252
  297DOPC   C3A 3553  10.314   4.137   3.952
  297DOPC   C4A 3554  10.390   4.154   3.651
  297DOPC   C1B 3555  10.566   4.437   4.551
  297DOPC   D2B 3556  10.574   4.468   4.252
  297DOPC   C3B 3557  10.542   4.396   3.952
  297DOPC   C4B 3558  10.561   4.440   3.651
  298DOPC   NC3 3559   8.048   2.851   5.452
  298DOPC   PO4 3560   8.025   2.890   5.152
  298DOPC   GL1 3561   8.011   2.855   4.851
  298DOPC   GL2 3562   8.111   2.759   4.851
  298DOPC   C1A 3563   7.994   2.842   4.551
  298DOPC   D2A 3564   7.987   2.866   4.252
  298DOPC   C3A 3565   8.031   2.906   3.952
  298DOPC   C4A 3566   8.031   2.866   3.651
  298DOPC   C1B 3567   8.219   2.560   4.551
  298DOPC   D2B 3568   8.248   2.617   4.252
  298DOPC   C3B 3569   8.275   2.574   3.952
  298DOPC   C4B 3570   8.231   2.604   3.651
  299DOPC   NC3 3571   2.688   8.246   5.452
  299DOPC   PO4 3572   2.667   8.307   5.152
  299DOPC   GL1 3573   2.634   8.257   4.851
  299DOPC   GL2 3574   2.703   8.111   4.851
  299DOPC   C1A 3575   2.706   8.270   4.551
  299DOPC   D2A 3576   2.673   8.242   4.252
  299DOPC   C3A 3577   2.695   8.309   3.952
  299DOPC   C4A 3578   2.625   8.243   3.651
  299DOPC   C1B 3579   2.850   7.998   4.551
  299DOPC   D2B 3580   2.810   7.925   4.252
  299DOPC   C3B 3581   2.815   7.991   3.952
  299DOPC   C4B 3582   2.819   8.003   3.651
  300DOPC   NC3 3583   5.808   7.984   5.452
  300DOPC   PO4 3584   5.753   7.990   5.152
  300DOPC   GL1 3585   5.777   7.955   4.851
  300DOPC   GL2 3586   5.832   8.115   4.851
  300DOPC   C1A 3587   5.743   7.928   4.551
  300DOPC   D2A 3588   5.749   7.950   4.252
  300DOPC   C3A 3589   5.752   7.958   3.952
  300DOPC   C4A 3590   5.731   7.961   3.651
  300DOPC   C1B 3591   5.874   8.337   4.551
  300DOPC   D2B 3592   5.898   8.335   4.252
  300DOPC   C3B 3593   5.915   8.280   3.952
  300DOPC   C4B 3594   5.888   8.299   3.651
  301DOPC   NC3 3595   5.011   3.376   5.452
  301DOPC   PO4 3596   5.044   3.346   5.152
  301DOPC   GL1 3597   5.095   3.319   4.851
  301DOPC   GL2 3598   5.075   3.514   4.851
  301DOPC   C1A 3599   5.004   3.291   4.551
  301DOPC   D2A 3600   5.095   3.380   4.252
  301DOPC   C3A 3601   5.052   3.311   3.952
  301DOPC   C4A 3602   5.014   3.307   3.651
  301DOPC   C1B 3603   5.074   3.656   4.551
  301DOPC   D2B 3604   5.085   3.706   4.252
  301DOPC   C3B 3605   5.015   3.652   3.952
  301DOPC   C4B 3606   5.054   3.645   3.651
  302DOPC   NC3 3607   2.052   4.124   5.452
  302DOPC   PO4 3608   2.081   4.161   5.152
  302DOPC   GL1 3609   2.075   4.143   4.851
  302DOPC   GL2 3610   1.998   4.251   4.851
  302DOPC   C1A 3611   2.132   4.181   4.551
  302DOPC   D2A 3612   2.128   4.166   4.252
  302DOPC   C3A 3613   2.082   4.167   3.952
  302DOPC   C4A 3614   2.097   4.139   3.651
  302DOPC   C1B 3615   1.829   4.467   4.551
  302DOPC   D2B 3616   1.897   4.375   4.252
  302DOPC   C3B 3617   1.823   4.402   3.952
  302DOPC   C4B 3618   1.838   4.395   3.651
  303DOPC   NC3 3619  15.955   0.316   5.452
  303DOPC   PO4 3620  15.895   0.339   5.152
  303DOPC   GL1 3621  15.924   0.339   4.851
  303DOPC   GL2 3622  15.804   0.467   4.851
  303DOPC   C1A 3623  15.962   0.319   4.551
  303DOPC   D2A 3624  15.981   0.316   4.252
  303DOPC   C3A 3625  15.909   0.300   3.952
  303DOPC   C4A 3626  15.893   0.341   3.651
  303DOPC   C1B 3627  15.728   0.613   4.551
  303DOPC   D2B 3628  15.670   0.569   4.252
  303DOPC   C3B 3629  15.701   0.533   3.952
  303DOPC   C4B 3630  15.697   0.568   3.651
  304DOPC   NC3 3631   0.339   5.632   5.452
  304DOPC   PO4 3632   0.404   5.699   5.152
  304DOPC   GL1 3633   0.383   5.628   4.851
  304DOPC   GL2 3634   0.481   5.829   4.851
  304DOPC   C1A 3635   0.391   5.667   4.551
  304DOPC   D2A 3636   0.390   5.672   4.252
  304DOPC   C3A 3637   0.319   5.612   3.952
  304DOPC   C4A 3638   0.351   5.657   3.651
  304DOPC   C1B 3639   0.452   5.954   4.551
  304DOPC   D2B 3640   0.513   6.027   4.252
  304DOPC   C3B 3641   0.511   5.997   3.952
  304DOPC   C4B 3642   0.544   6.015   3.651
  305DOPC   NC3 3643   5.071   7.506   5.452
  305DOPC   PO4 3644   5.122   7.481   5.152
  305DOPC   GL1 3645   5.070   7.550   4.851
  305DOPC   GL2 3646   5.089   7.333   4.851
  305DOPC   C1A 3647   5.113   7.532   4.551
  305DOPC   D2A 3648   5.101   7.501   4.252
  305DOPC   C3A 3649   5.108   7.491   3.952
  305DOPC   C4A 3650   5.088   7.489   3.651
  305DOPC   C1B 3651   5.006   7.205   4.551
  305DOPC   D2B 3652   5.005   7.151   4.252
  305DOPC   C3B 3653   5.013   7.177   3.952
  305DOPC   C4B 3654   4.992   7.237   3.651
  306DOPC   NC3 3655   1.958   8.343   5.452
  306DOPC   PO4 3656   1.988   8.345   5.152
  306DOPC   GL1 3657   2.017   8.332   4.851
  306DOPC   GL2 3658   1.993   8.083   4.851
  306DOPC   C1A 3659   2.015   8.300   4.551
  306DOPC   D2A 3660   1.942   8.340   4.252
  306DOPC   C3A 3661   1.976   8.299   3.952
  306DOPC   C4A 3662   1.994   8.284   3.651
  306DOPC   C1B 3663   1.974   7.958   4.551
  306DOPC   D2B 3664   1.956   7.943   4.252
  306DOPC   C3B 3665   1.995   7.929   3.952
  306DOPC   C4B 3666   1.950   7.915   3.651
  307DOPC   NC3 3667  17.975   5.699   5.452
  307DOPC   PO4 3668  17.968   5.663   5.152
  307DOPC   GL1 3669  17.952   5.689   4.851
  307DOPC   GL2 3670  18.131   5.859   4.851
  307DOPC   C1A 3671  18.016   5.706   4.551
  307DOPC   D2A 3672  18.001   5.690   4.252
  307DOPC   C3A 3673  18.004   5.711   3.952
  307DOPC   C4A 3674  17.997   5.696   3.651
  307DOPC   C1B 3675  18.279   5.971   4.551
  307DOPC   D2B 3676  18.237   5.973   4.252
  307DOPC   C3B 3677  18.274   5.921   3.952
  307DOPC   C4B 3678  18.281   5.970   3.651
  308DOPC   NC3 3679   8.149   9.488   5.452
  308DOPC   PO4 3680   8.148   9.505   5.152
  308DOPC   GL1 3681   8.137   9.518   4.851
  308DOPC   GL2 3682   8.093   9.628   4.851
  308DOPC   C1A 3683   8.129   9.488   4.551
  308DOPC   D2A 3684   8.186   9.460   4.252
  308DOPC   C3A 3685   8.179   9.479   3.952
  308DOPC   C4A 3686   8.142   9.487   3.651
  308DOPC   C1B 3687   8.093   9.884   4.551
  308DOPC   D2B 3688   8.086   9.884   4.252
  308DOPC   C3B 3689   8.120   9.797   3.952
  308DOPC   C4B 3690   8.087   9.801   3.651
  309DOPC   NC3 3691  13.696   0.443   5.452
  309DOPC   PO4 3692  13.652   0.473   5.152
  309DOPC   GL1 3693  13.723   0.430   4.851
  309DOPC   GL2 3694  13.496   0.454   4.851
  309DOPC   C1A 3695  13.729   0.426   4.551
  309DOPC   D2A 3696  13.724   0.430   4.252
  309DOPC   C3A 3697  13.699   0.410   3.952
  309DOPC   C4A 3698  13.653   0.479   3.651
  309DOPC   C1B 3699  13.317   0.413   4.551
  309DOPC   D2B 3700  13.379   0.443   4.252
  309DOPC   C3B 3701  13.359   0.397   3.952
  309DOPC   C4B 3702  13.314   0.382   3.651
  310DOPC   NC3 3703   5.006   2.617   5.452
  310DOPC   PO4 3704   4.960   2.578   5.152
  310DOPC   GL1 3705   4.956   2.588   4.851
  310DOPC   GL2 3706   5.060   2.780   4.851
  310DOPC   C1A 3707   4.953   2.617   4.551
  310DOPC   D2A 3708   5.038   2.553   4.252
  310DOPC   C3A 3709   5.035   2.588   3.952
  310DOPC   C4A 3710   5.009   2.595   3.651
  310DOPC   C1B 3711   5.106   2.893   4.551
  310DOPC   D2B 3712   5.083   2.942   4.252
  310DOPC   C3B 3713   5.114   2.921   3.952
  310DOPC   C4B 3714   5.154   2.958   3.651
  311DOPC   NC3 3715  15.735   4.465   5.452
  311DOPC   PO4 3716  15.754   4.403   5.152
  311DOPC   GL1 3717  15.706   4.461   4.851
  311DOPC   GL2 3718  15.862   4.263   4.851
  311DOPC   C1A 3719  15.695   4.471   4.551
  311DOPC   D2A 3720  15.667   4.465   4.252
  311DOPC   C3A 3721  15.690   4.377   3.952
  311DOPC   C4A 3722  15.692   4.454   3.651
  311DOPC   C1B 3723  15.888   4.185   4.551
  311DOPC   D2B 3724  15.906   4.087   4.252
  311DOPC   C3B 3725  15.873   4.175   3.952
  311DOPC   C4B 3726  15.959   4.158   3.651
  312DOPC   NC3 3727  18.110   6.413   5.452
  312DOPC   PO4 3728  18.099   6.430   5.152
  312DOPC   GL1 3729  18.065   6.440   4.851
  312DOPC   GL2 3730  18.095   6.579   4.851
  312DOPC   C1A 3731  18.072   6.451   4.551
  312DOPC   D2A 3732  18.099   6.416   4.252
  312DOPC   C3A 3733  18.094   6.389   3.952
  312DOPC   C4A 3734  18.104   6.397   3.651
  312DOPC   C1B 3735  18.150   6.791   4.551
  312DOPC   D2B 3736  18.235   6.726   4.252
  312DOPC   C3B 3737  18.157   6.724   3.952
  312DOPC   C4B 3738  18.156   6.723   3.651
  313DOPC   NC3 3739   2.672   9.491   5.452
  313DOPC   PO4 3740   2.712   9.488   5.152
  313DOPC   GL1 3741   2.637   9.454   4.851
  313DOPC   GL2 3742   2.738   9.697   4.851
  313DOPC   C1A 3743   2.632   9.492   4.551
  313DOPC   D2A 3744   2.711   9.552   4.252
  313DOPC   C3A 3745   2.653   9.486   3.952
  313DOPC   C4A 3746   2.711   9.481   3.651
  313DOPC   C1B 3747   2.768   9.811   4.551
  313DOPC   D2B 3748   2.777   9.851   4.252
  313DOPC   C3B 3749   2.837   9.801   3.952
  313DOPC   C4B 3750   2.770   9.851   3.651
  314DOPC   NC3 3751   3.333   5.112   5.452
  314DOPC   PO4 3752   3.302   5.086   5.152
  314DOPC   GL1 3753   3.350   5.120   4.851
  314DOPC   GL2 3754   3.546   5.015   4.851
  314DOPC   C1A 3755   3.310   5.086   4.551
  314DOPC   D2A 3756   3.355   5.077   4.252
  314DOPC   C3A 3757   3.305   5.150   3.952
  314DOPC   C4A 3758   3.389   5.141   3.651
  314DOPC   C1B 3759   3.648   4.997   4.551
  314DOPC   D2B 3760   3.659   4.943   4.252
  314DOPC   C3B 3761   3.684   4.988   3.952
  314DOPC   C4B 3762   3.714   4.931   3.651
  315DOPC   NC3 3763  16.788   2.867   5.452
  315DOPC   PO4 3764  16.704   2.796   5.152
  315DOPC   GL1 3765  16.693   2.819   4.851
  315DOPC   GL2 3766  16.600   2.740   4.851
  315DOPC   C1A 3767  16.739   2.843   4.551
  315DOPC   D2A 3768  16.786   2.822   4.252
  315DOPC   C3A 3769  16.761   2.870   3.952
  315DOPC   C4A 3770  16.710   2.874   3.651
  315DOPC   C1B 3771  16.414   2.639   4.551
  315DOPC   D2B 3772  16.486   2.624   4.252
  315DOPC   C3B 3773  16.400   2.667   3.952
  315DOPC   C4B 3774  16.425   2.654   3.651
  316DOPC   NC3 3775  16.590   2.157   5.452
  316DOPC   PO4 3776  16.517   2.102   5.152
  316DOPC   GL1 3777  16.542   2.183   4.851
  316DOPC   GL2 3778  16.551   1.982   4.851
  316DOPC   C1A 3779  16.586   2.118   4.551
  316DOPC   D2A 3780  16.566   2.199   4.252
  316DOPC   C3A 3781  16.584   2.108   3.952
  316DOPC   C4A 3782  16.590   2.137   3.651
  316DOPC   C1B 3783  16.657   1.839   4.551
  316DOPC   D2B 3784  16.586   1.816   4.252
  316DOPC   C3B 3785  16.572   1.809   3.952
  316DOPC   C4B 3786  16.664   1.844   3.651
  317DOPC   NC3 3787   8.850   3.642   5.452
  317DOPC   PO4 3788   8.826   3.653   5.152
  317DOPC   GL1 3789   8.843   3.724   4.851
  317DOPC   GL2 3790   8.880   3.507   4.851
  317DOPC   C1A 3791   8.837   3.695   4.551
  317DOPC   D2A 3792   8.845   3.686   4.252
  317DOPC   C3A 3793   8.844   3.662   3.952
  317DOPC   C4A 3794   8.879   3.725   3.651
  317DOPC   C1B 3795   8.872   3.384   4.551
  317DOPC   D2B 3796   8.932   3.292   4.252
  317DOPC   C3B 3797   8.884   3.368   3.952
  317DOPC   C4B 3798   8.913   3.342   3.651
  318DOPC   NC3 3799   1.331   1.199   5.452
  318DOPC   PO4 3800   1.410   1.186   5.152
  318DOPC   GL1 3801   1.415   1.178   4.851
  318DOPC   GL2 3802   1.157   1.210   4.851
  318DOPC   C1A 3803   1.362   1.148   4.551
  318DOPC   D2A 3804   1.344   1.163   4.252
  318DOPC   C3A 3805   1.347   1.128   3.952
  318DOPC   C4A 3806   1.363   1.142   3.651
  318DOPC   C1B 3807   1.004   1.243   4.551
  318DOPC   D2B 3808   1.030   1.266   4.252
  318DOPC   C3B 3809   1.004   1.244   3.952
  318DOPC   C4B 3810   1.027   1.269   3.651
  319DOPC   NC3 3811   1.209   0.236   5.452
  319DOPC   PO4 3812   1.174   0.294   5.152
  319DOPC   GL1 3813   1.165   0.291   4.851
  319DOPC   GL2 3814   1.235   0.459   4.851
  319DOPC   C1A 3815   1.226   0.226   4.551
  319DOPC   D2A 3816   1.166   0.270   4.252
  319DOPC   C3A 3817   1.166   0.225   3.952
  319DOPC   C4A 3818   1.144   0.213   3.651
  319DOPC   C1B 3819   1.238   0.623   4.551
  319DOPC   D2B 3820   1.199   0.629   4.252
  319DOPC   C3B 3821   1.232   0.619   3.952
  319DOPC   C4B 3822   1.258   0.566   3.651
  320DOPC   NC3 3823   1.213   6.733   5.452
  320DOPC   PO4 3824   1.145   6.810   5.152
  320DOPC   GL1 3825   1.135   6.728   4.851
  320DOPC   GL2 3826   1.238   6.633   4.851
  320DOPC   C1A 3827   1.199   6.792   4.551
  320DOPC   D2A 3828   1.210   6.770   4.252
  320DOPC   C3A 3829   1.188   6.745   3.952
  320DOPC   C4A 3830   1.191   6.729   3.651
  320DOPC   C1B 3831   1.219   6.365   4.551
  320DOPC   D2B 3832   1.247   6.378   4.252
  320DOPC   C3B 3833   1.272   6.412   3.952
  320DOPC   C4B 3834   1.238   6.379   3.651
  321DOPC   NC3 3835  13.552   5.185   5.452
  321DOPC   PO4 3836  13.547   5.244   5.152
  321DOPC   GL1 3837  13.594   5.266   4.851
  321DOPC   GL2 3838  13.501   5.017   4.851
  321DOPC   C1A 3839  13.549   5.234   4.551
  321DOPC   D2A 3840  13.566   5.237   4.252
  321DOPC   C3A 3841  13.586   5.225   3.952
  321DOPC   C4A 3842  13.508   5.209   3.651
  321DOPC   C1B 3843  13.520   4.871   4.551
  321DOPC   D2B 3844  13.521   4.874   4.252
  321DOPC   C3B 3845  13.497   4.850   3.952
  321DOPC   C4B 3846  13.489   4.868   3.651
  322DOPC   NC3 3847  14.400   6.457   5.452
  322DOPC   PO4 3848  14.327   6.393   5.152
  322DOPC   GL1 3849  14.349   6.455   4.851
  322DOPC   GL2 3850  14.266   6.551   4.851
  322DOPC   C1A 3851  14.318   6.383   4.551
  322DOPC   D2A 3852  14.374   6.436   4.252
  322DOPC   C3A 3853  14.320   6.447   3.952
  322DOPC   C4A 3854  14.346   6.471   3.651
  322DOPC   C1B 3855  14.200   6.703   4.551
  322DOPC   D2B 3856  14.184   6.757   4.252
  322DOPC   C3B 3857  14.234   6.768   3.952
  322DOPC   C4B 3858  14.212   6.723   3.651
  323DOPC   NC3 3859   1.110   8.824   5.452
  323DOPC   PO4 3860   1.049   8.789   5.152
  323DOPC   GL1 3861   1.035   8.829   4.851
  323DOPC   GL2 3862   1.229   8.873   4.851
  323DOPC   C1A 3863   1.109   8.790   4.551
  323DOPC   D2A 3864   1.031   8.748   4.252
  323DOPC   C3A 3865   1.074   8.811   3.952
  323DOPC   C4A 3866   1.026   8.784   3.651
  323DOPC   C1B 3867   1.309   8.991   4.551
  323DOPC   D2B 3868   1.293   8.980   4.252
  323DOPC   C3B 3869   1.374   9.037   3.952
  323DOPC   C4B 3870   1.329   8.989   3.651
  324DOPC   NC3 3871  17.949   0.350   5.452
  324DOPC   PO4 3872  18.014   0.280   5.152
  324DOPC   GL1 3873  18.019   0.366   4.851
  324DOPC   GL2 3874  18.103   0.452   4.851
  324DOPC   C1A 3875  17.980   0.369   4.551
  324DOPC   D2A 3876  18.009   0.342   4.252
  324DOPC   C3A 3877  17.992   0.292   3.952
  324DOPC   C4A 3878  17.938   0.297   3.651
  324DOPC   C1B 3879  18.260   0.515   4.551
  324DOPC   D2B 3880  18.303   0.565   4.252
  324DOPC   C3B 3881  18.301   0.518   3.952
  324DOPC   C4B 3882  18.302   0.550   3.651
  325DOPC   NC3 3883  17.205   4.155   5.452
  325DOPC   PO4 3884  17.256   4.129   5.152
  325DOPC   GL1 3885  17.220   4.140   4.851
  325DOPC   GL2 3886  17.397   4.233   4.851
  325DOPC   C1A 3887  17.273   4.100   4.551
  325DOPC   D2A 3888  17.235   4.140   4.252
  325DOPC   C3A 3889  17.281   4.152   3.952
  325DOPC   C4A 3890  17.199   4.159   3.651
  325DOPC   C1B 3891  17.471   4.372   4.551
  325DOPC   D2B 3892  17.500   4.432   4.252
  325DOPC   C3B 3893  17.511   4.424   3.952
  325DOPC   C4B 3894  17.513   4.425   3.651
  326DOPC   NC3 3895  13.314   1.168   5.452
  326DOPC   PO4 3896  13.306   1.115   5.152
  326DOPC   GL1 3897  13.293   1.123   4.851
  326DOPC   GL2 3898  13.489   1.161   4.851
  326DOPC   C1A 3899  13.312   1.128   4.551
  326DOPC   D2A 3900  13.294   1.135   4.252
  326DOPC   C3A 3901  13.317   1.162   3.952
  326DOPC   C4A 3902  13.353   1.164   3.651
  326DOPC   C1B 3903  13.711   1.280   4.551
  326DOPC   D2B 3904  13.694   1.226   4.252
  326DOPC   C3B 3905  13.659   1.299   3.952
  326DOPC   C4B 3906  13.697   1.286   3.651
  327DOPC   NC3 3907  13.490   9.116   5.452
  327DOPC   PO4 3908  13.467   9.029   5.152
  327DOPC   GL1 3909  13.487   9.110   4.851
  327DOPC   GL2 3910  13.499   8.917   4.851
  327DOPC   C1A 3911  13.521   9.109   4.551
  327DOPC   D2A 3912  13.549   9.079   4.252
  327DOPC   C3A 3913  13.483   9.091   3.952
  327DOPC   C4A 3914  13.482   9.067   3.651
  327DOPC   C1B 3915  13.553   8.732   4.551
  327DOPC   D2B 3916  13.563   8.719   4.252
  327DOPC   C3B 3917  13.536   8.719   3.952
  327DOPC   C4B 3918  13.561   8.740   3.651
  328DOPC   NC3 3919  19.846   9.663   1.552
  328DOPC   PO4 3920  19.794   9.734   1.852
  328DOPC   GL1 3921  19.821   9.726   2.152
  328DOPC   GL2 3922  19.620   9.677   2.152
  328DOPC   C1A 3923  19.874   9.658   2.452
  328DOPC   D2A 3924  19.890   9.646   2.752
  328DOPC   C3A 3925  19.796   9.681   3.051
  328DOPC   C4A 3926  19.880   9.686   3.352
  328DOPC   C1B 3927  19.487   9.647   2.452
  328DOPC   D2B 3928  19.464   9.656   2.752
  328DOPC   C3B 3929  19.536   9.637   3.051
  328DOPC   C4B 3930  19.443   9.667   3.352
  329DOPC   NC3 3931  13.410   1.412   1.552
  329DOPC   PO4 3932  13.472   1.343   1.852
  329DOPC   GL1 3933  13.464   1.375   2.152
  329DOPC   GL2 3934  13.492   1.191   2.152
  329DOPC   C1A 3935  13.435   1.370   2.452
  329DOPC   D2A 3936  13.441   1.348   2.752
  329DOPC   C3A 3937  13.428   1.384   3.051
  329DOPC   C4A 3938  13.465   1.412   3.352
  329DOPC   C1B 3939  13.562   0.987   2.452
  329DOPC   D2B 3940  13.541   1.065   2.752
  329DOPC   C3B 3941  13.550   0.986   3.051
  329DOPC   C4B 3942  13.525   0.991   3.352
  330DOPC   NC3 3943  10.442   1.772   1.552
  330DOPC   PO4 3944  10.454   1.826   1.852
  330DOPC   GL1 3945  10.453   1.803   2.152
  330DOPC   GL2 3946  10.467   2.020   2.152
  330DOPC   C1A 3947  10.394   1.829   2.452
  330DOPC   D2A 3948  10.448   1.781   2.752
  330DOPC   C3A 3949  10.462   1.838   3.051
  330DOPC   C4A 3950  10.372   1.842   3.352
  330DOPC   C1B 3951  10.467   2.117   2.452
  330DOPC   D2B 3952  10.472   2.142   2.752
  330DOPC   C3B 3953  10.487   2.158   3.051
  330DOPC   C4B 3954  10.435   2.157   3.352
  331DOPC   NC3 3955   9.794   5.769   1.552
  331DOPC   PO4 3956   9.862   5.719   1.852
  331DOPC   GL1 3957   9.851   5.764   2.152
  331DOPC   GL2 3958   9.632   5.836   2.152
  331DOPC   C1A 3959   9.819   5.706   2.452
  331DOPC   D2A 3960   9.865   5.759   2.752
  331DOPC   C3A 3961   9.856   5.747   3.051
  331DOPC   C4A 3962   9.796   5.728   3.352
  331DOPC   C1B 3963   9.468   5.877   2.452
  331DOPC   D2B 3964   9.465   5.947   2.752
  331DOPC   C3B 3965   9.528   5.921   3.051
  331DOPC   C4B 3966   9.487   5.870   3.352
  332DOPC   NC3 3967  16.571   4.865   1.552
  332DOPC   PO4 3968  16.596   4.833   1.852
  332DOPC   GL1 3969  16.540   4.891   2.152
  332DOPC   GL2 3970  16.604   5.061   2.152
  332DOPC   C1A 3971  16.576   4.828   2.452
  332DOPC   D2A 3972  16.604   4.859   2.752
  332DOPC   C3A 3973  16.578   4.858   3.051
  332DOPC   C4A 3974  16.543   4.897   3.352
  332DOPC   C1B 3975  16.652   5.235   2.452
  332DOPC   D2B 3976  16.559   5.248   2.752
  332DOPC   C3B 3977  16.641   5.239   3.051
  332DOPC   C4B 3978  16.611   5.236   3.352
  333DOPC   NC3 3979  17.459   1.339   1.552
  333DOPC   PO4 3980  17.499   1.266   1.852
  333DOPC   GL1 3981  17.479   1.251   2.152
  333DOPC   GL2 3982  17.383   1.204   2.152
  333DOPC   C1A 3983  17.465   1.276   2.452
  333DOPC   D2A 3984  17.551   1.344   2.752
  333DOPC   C3A 3985  17.523   1.310   3.051
  333DOPC   C4A 3986  17.501   1.346   3.352
  333DOPC   C1B 3987  17.200   1.120   2.452
  333DOPC   D2B 3988  17.198   1.088   2.752
  333DOPC   C3B 3989  17.193   1.095   3.051
  333DOPC   C4B 3990  17.188   1.088   3.352
  334DOPC   NC3 3991   9.121   4.238   1.552
  334DOPC   PO4 3992   9.049   4.260   1.852
  334DOPC   GL1 3993   9.069   4.295   2.152
  334DOPC   GL2 3994   8.891   4.267   2.152
  334DOPC   C1A 3995   9.039   4.272   2.452
  334DOPC   D2A 3996   9.073   4.217   2.752
  334DOPC   C3A 3997   9.063   4.225   3.051
  334DOPC   C4A 3998   9.028   4.287   3.352
  334DOPC   C1B 3999   8.742   4.274   2.452
  334DOPC   D2B 4000   8.685   4.277   2.752
  334DOPC   C3B 4001   8.742   4.264   3.051
  334DOPC   C4B 4002   8.737   4.268   3.352
  335DOPC   NC3 4003  15.916   9.870   1.552
  335DOPC   PO4 4004  15.924   9.811   1.852
  335DOPC   GL1 4005  15.926   9.843   2.152
  335DOPC   GL2 4006  15.809   9.620   2.152
  335DOPC   C1A 4007  15.866   9.786   2.452
  335DOPC   D2A 4008  15.857   9.782   2.752
  335DOPC   C3A 4009  15.875   9.878   3.051
  335DOPC   C4A 4010  15.937   9.865   3.352
  335DOPC   C1B 4011  15.706   9.525   2.452
  335DOPC   D2B 4012  15.748   9.471   2.752
  335DOPC   C3B 4013  15.752   9.483   3.051
  335DOPC   C4B 4014  15.767   9.517   3.352
  336DOPC   NC3 4015   5.147   9.544   1.552
  336DOPC   PO4 4016   5.098   9.534   1.852
  336DOPC   GL1 4017   5.129   9.480   2.152
  336DOPC   GL2 4018   5.026   9.622   2.152
  336DOPC   C1A 4019   5.156   9.495   2.452
  336DOPC   D2A 4020   5.138   9.510   2.752
  336DOPC   C3A 4021   5.170   9.485   3.051
  336DOPC   C4A 4022   5.091   9.459   3.352
  336DOPC   C1B 4023   5.007   9.860   2.452
  336DOPC   D2B 4024   5.013   9.833   2.752
  336DOPC   C3B 4025   4.966   9.813   3.051
  336DOPC   C4B 4026   5.014   9.801   3.352
  337DOPC   NC3 4027   2.764   8.725   1.552
  337DOPC   PO4 4028   2.742   8.725   1.852
  337DOPC   GL1 4029   2.776   8.763   2.152
  337DOPC   GL2 4030   2.778   8.901   2.152
  337DOPC   C1A 4031   2.774   8.727   2.452
  337DOPC   D2A 4032   2.811   8.751   2.752
  337DOPC   C3A 4033   2.759   8.743   3.051
  337DOPC   C4A 4034   2.786   8.755   3.352
  337DOPC   C1B 4035   2.657   9.053   2.452
  337DOPC   D2B 4036   2.708   9.031   2.752
  337DOPC   C3B 4037   2.677   9.111   3.051
  337DOPC   C4B 4038   2.722   9.109   3.352
  338DOPC   NC3 4039   9.008   8.278   1.552
  338DOPC   PO4 4040   8.952   8.296   1.852
  338DOPC   GL1 4041   8.976   8.281   2.152
  338DOPC   GL2 4042   8.932   8.171   2.152
  338DOPC   C1A 4043   9.005   8.241   2.452
  338DOPC   D2A 4044   9.014   8.231   2.752
  338DOPC   C3A 4045   9.003   8.305   3.051
  338DOPC   C4A 4046   9.005   8.282   3.352
  338DOPC   C1B 4047   8.836   8.010   2.452
  338DOPC   D2B 4048   8.761   7.999   2.752
  338DOPC   C3B 4049   8.836   8.019   3.051
  338DOPC   C4B 4050   8.744   7.962   3.352
  339DOPC   NC3 4051  12.952   5.138   1.552
  339DOPC   PO4 4052  12.944   5.115   1.852
  339DOPC   GL1 4053  12.864   5.064   2.152
  339DOPC   GL2 4054  12.775   5.024   2.152
  339DOPC   C1A 4055  12.920   5.141   2.452
  339DOPC   D2A 4056  12.871   5.125   2.752
  339DOPC   C3A 4057  12.865   5.130   3.051
  339DOPC   C4A 4058  12.905   5.087   3.352
  339DOPC   C1B 4059  12.551   4.964   2.452
  339DOPC   D2B 4060  12.595   5.040   2.752
  339DOPC   C3B 4061  12.583   4.989   3.051
  339DOPC   C4B 4062  12.556   4.966   3.352
  340DOPC   NC3 4063  10.562   9.084   1.552
  340DOPC   PO4 4064  10.543   9.061   1.852
  340DOPC   GL1 4065  10.539   9.042   2.152
  340DOPC   GL2 4066  10.415   8.908   2.152
  340DOPC   C1A 4067  10.536   9.051   2.452
  340DOPC   D2A 4068  10.501   9.042   2.752
  340DOPC   C3A 4069  10.510   9.068   3.051
  340DOPC   C4A 4070  10.504   9.039   3.352
  340DOPC   C1B 4071  10.345   8.780   2.452
  340DOPC   D2B 4072  10.316   8.751   2.752
  340DOPC   C3B 4073  10.329   8.760   3.051
  340DOPC   C4B 4074  10.346   8.754   3.352
  341DOPC   NC3 4075   4.246   7.187   1.552
  341DOPC   PO4 4076   4.271   7.137   1.852
  341DOPC   GL1 4077   4.319   7.170   2.152
  341DOPC   GL2 4078   4.240   7.361   2.152
  341DOPC   C1A 4079   4.268   7.192   2.452
  341DOPC   D2A 4080   4.244   7.145   2.752
  341DOPC   C3A 4081   4.265   7.151   3.051
  341DOPC   C4A 4082   4.280   7.198   3.352
  341DOPC   C1B 4083   4.309   7.556   2.452
  341DOPC   D2B 4084   4.313   7.538   2.752
  341DOPC   C3B 4085   4.264   7.502   3.051
  341DOPC   C4B 4086   4.248   7.545   3.352
  342DOPC   NC3 4087  13.709   5.847   1.552
  342DOPC   PO4 4088  13.693   5.851   1.852
  342DOPC   GL1 4089  13.691   5.830   2.152
  342DOPC   GL2 4090  13.539   5.772   2.152
  342DOPC   C1A 4091  13.651   5.857   2.452
  342DOPC   D2A 4092  13.670   5.864   2.752
  342DOPC   C3A 4093  13.665   5.834   3.051
  342DOPC   C4A 4094  13.648   5.870   3.352
  342DOPC   C1B 4095  13.292   5.745   2.452
  342DOPC   D2B 4096  13.343   5.827   2.752
  342DOPC   C3B 4097  13.348   5.806   3.051
  342DOPC   C4B 4098  13.352   5.777   3.352
  343DOPC   NC3 4099  12.609   7.212   1.552
  343DOPC   PO4 4100  12.598   7.224   1.852
  343DOPC   GL1 4101  12.623   7.298   2.152
  343DOPC   GL2 4102  12.727   7.368   2.152
  343DOPC   C1A 4103  12.604   7.271   2.452
  343DOPC   D2A 4104  12.635   7.270   2.752
  343DOPC   C3A 4105  12.593   7.203   3.051
  343DOPC   C4A 4106  12.591   7.261   3.352
  343DOPC   C1B 4107  12.864   7.453   2.452
  343DOPC   D2B 4108  12.878   7.470   2.752
  343DOPC   C3B 4109  12.892   7.419   3.051
  343DOPC   C4B 4110  12.911   7.471   3.352
  344DOPC   NC3 4111  14.215   9.033   1.552
  344DOPC   PO4 4112  14.219   9.109   1.852
  344DOPC   GL1 4113  14.264   9.030   2.152
  344DOPC   GL2 4114  14.279   8.906   2.152
  344DOPC   C1A 4115  14.215   9.039   2.452
  344DOPC   D2A 4116  14.187   9.107   2.752
  344DOPC   C3A 4117  14.246   9.075   3.051
  344DOPC   C4A 4118  14.268   9.016   3.352
  344DOPC   C1B 4119  14.345   8.730   2.452
  344DOPC   D2B 4120  14.309   8.697   2.752
  344DOPC   C3B 4121  14.306   8.681   3.051
  344DOPC   C4B 4122  14.375   8.720   3.352
  345DOPC   NC3 4123   5.208   7.298   1.552
  345DOPC   PO4 4124   5.249   7.284   1.852
  345DOPC   GL1 4125   5.194   7.252   2.152
  345DOPC   GL2 4126   5.021   7.380   2.152
  345DOPC   C1A 4127   5.248   7.289   2.452
  345DOPC   D2A 4128   5.261   7.276   2.752
  345DOPC   C3A 4129   5.233   7.254   3.051
  345DOPC   C4A 4130   5.202   7.292   3.352
  345DOPC   C1B 4131   4.877   7.394   2.452
  345DOPC   D2B 4132   4.879   7.395   2.752
  345DOPC   C3B 4133   4.900   7.431   3.051
  345DOPC   C4B 4134   4.906   7.442   3.352
  346DOPC   NC3 4135  15.900   4.124   1.552
  346DOPC   PO4 4136  15.951   4.148   1.852
  346DOPC   GL1 4137  15.991   4.200   2.152
  346DOPC   GL2 4138  15.790   4.327   2.152
  346DOPC   C1A 4139  15.982   4.175   2.452
  346DOPC   D2A 4140  15.900   4.172   2.752
  346DOPC   C3A 4141  15.905   4.139   3.051
  346DOPC   C4A 4142  15.941   4.176   3.352
  346DOPC   C1B 4143  15.719   4.431   2.452
  346DOPC   D2B 4144  15.652   4.444   2.752
  346DOPC   C3B 4145  15.730   4.439   3.051
  346DOPC   C4B 4146  15.724   4.397   3.352
  347DOPC   NC3 4147   1.406   4.291   1.552
  347DOPC   PO4 4148   1.408   4.235   1.852
  347DOPC   GL1 4149   1.375   4.231   2.152
  347DOPC   GL2 4150   1.247   4.299   2.152
  347DOPC   C1A 4151   1.346   4.246   2.452
  347DOPC   D2A 4152   1.400   4.299   2.752
  347DOPC   C3A 4153   1.417   4.253   3.051
  347DOPC   C4A 4154   1.366   4.284   3.352
  347DOPC   C1B 4155   1.070   4.336   2.452
  347DOPC   D2B 4156   0.978   4.256   2.752
  347DOPC   C3B 4157   1.026   4.245   3.051
  347DOPC   C4B 4158   1.043   4.249   3.352
  348DOPC   NC3 4159  16.674   1.836   1.552
  348DOPC   PO4 4160  16.709   1.851   1.852
  348DOPC   GL1 4161  16.706   1.887   2.152
  348DOPC   GL2 4162  16.610   1.982   2.152
  348DOPC   C1A 4163  16.684   1.896   2.452
  348DOPC   D2A 4164  16.727   1.844   2.752
  348DOPC   C3A 4165  16.762   1.817   3.051
  348DOPC   C4A 4166  16.760   1.835   3.352
  348DOPC   C1B 4167  16.437   2.138   2.452
  348DOPC   D2B 4168  16.459   2.050   2.752
  348DOPC   C3B 4169  16.444   2.145   3.051
  348DOPC   C4B 4170  16.445   2.110   3.352
  349DOPC   NC3 4171   4.995   2.889   1.552
  349DOPC   PO4 4172   5.007   2.877   1.852
  349DOPC   GL1 4173   5.076   2.894   2.152
  349DOPC   GL2 4174   5.001   2.723   2.152
  349DOPC   C1A 4175   5.073   2.897   2.452
  349DOPC   D2A 4176   5.023   2.936   2.752
  349DOPC   C3A 4177   5.088   2.914   3.051
  349DOPC   C4A 4178   5.019   2.876   3.352
  349DOPC   C1B 4179   5.033   2.555   2.452
  349DOPC   D2B 4180   5.088   2.552   2.752
  349DOPC   C3B 4181   5.053   2.547   3.051
  349DOPC   C4B 4182   5.104   2.600   3.352
  350DOPC   NC3 4183  12.784   6.404   1.552
  350DOPC   PO4 4184  12.810   6.442   1.852
  350DOPC   GL1 4185  12.819   6.388   2.152
  350DOPC   GL2 4186  12.749   6.601   2.152
  350DOPC   C1A 4187  12.809   6.385   2.452
  350DOPC   D2A 4188  12.744   6.455   2.752
  350DOPC   C3A 4189  12.758   6.403   3.051
  350DOPC   C4A 4190  12.825   6.380   3.352
  350DOPC   C1B 4191  12.728   6.806   2.452
  350DOPC   D2B 4192  12.673   6.775   2.752
  350DOPC   C3B 4193  12.678   6.761   3.051
  350DOPC   C4B 4194  12.658   6.745   3.352
  351DOPC   NC3 4195  13.348   2.628   1.552
  351DOPC   PO4 4196  13.304   2.672   1.852
  351DOPC   GL1 4197  13.368   2.628   2.152
  351DOPC   GL2 4198  13.479   2.775   2.152
  351DOPC   C1A 4199  13.392   2.680   2.452
  351DOPC   D2A 4200  13.371   2.705   2.752
  351DOPC   C3A 4201  13.347   2.632   3.051
  351DOPC   C4A 4202  13.327   2.646   3.352
  351DOPC   C1B 4203  13.699   2.850   2.452
  351DOPC   D2B 4204  13.683   2.803   2.752
  351DOPC   C3B 4205  13.681   2.783   3.051
  351DOPC   C4B 4206  13.631   2.835   3.352
  352DOPC   NC3 4207  11.890   2.606   1.552
  352DOPC   PO4 4208  11.882   2.541   1.852
  352DOPC   GL1 4209  11.899   2.614   2.152
  352DOPC   GL2 4210  11.945   2.722   2.152
  352DOPC   C1A 4211  11.893   2.558   2.452
  352DOPC   D2A 4212  11.939   2.602   2.752
  352DOPC   C3A 4213  11.876   2.611   3.051
  352DOPC   C4A 4214  11.929   2.596   3.352
  352DOPC   C1B 4215  12.020   2.945   2.452
  352DOPC   D2B 4216  12.007   2.931   2.752
  352DOPC   C3B 4217  12.079   2.892   3.051
  352DOPC   C4B 4218  11.999   2.931   3.352
  353DOPC   NC3 4219  12.796   8.263   1.552
  353DOPC   PO4 4220  12.852   8.288   1.852
  353DOPC   GL1 4221  12.764   8.248   2.152
  353DOPC   GL2 4222  12.775   8.143   2.152
  353DOPC   C1A 4223  12.856   8.286   2.452
  353DOPC   D2A 4224  12.795   8.341   2.752
  353DOPC   C3A 4225  12.795   8.318   3.051
  353DOPC   C4A 4226  12.850   8.305   3.352
  353DOPC   C1B 4227  12.696   7.953   2.452
  353DOPC   D2B 4228  12.699   7.948   2.752
  353DOPC   C3B 4229  12.712   7.982   3.051
  353DOPC   C4B 4230  12.720   7.930   3.352
  354DOPC   NC3 4231   8.746   6.620   1.552
  354DOPC   PO4 4232   8.715   6.650   1.852
  354DOPC   GL1 4233   8.763   6.644   2.152
  354DOPC   GL2 4234   8.941   6.608   2.152
  354DOPC   C1A 4235   8.700   6.613   2.452
  354DOPC   D2A 4236   8.766   6.634   2.752
  354DOPC   C3A 4237   8.684   6.682   3.051
  354DOPC   C4A 4238   8.777   6.634   3.352
  354DOPC   C1B 4239   9.023   6.545   2.452
  354DOPC   D2B 4240   9.101   6.538   2.752
  354DOPC   C3B 4241   9.069   6.490   3.051
  354DOPC   C4B 4242   9.045   6.516   3.352
  355DOPC   NC3 4243   2.531   7.332   1.552
  355DOPC   PO4 4244   2.620   7.312   1.852
  355DOPC   GL1 4245   2.588   7.345   2.152
  355DOPC   GL2 4246   2.717   7.313   2.152
  355DOPC   C1A 4247   2.590   7.319   2.452
  355DOPC   D2A 4248   2.532   7.270   2.752
  355DOPC   C3A 4249   2.531   7.275   3.051
  355DOPC   C4A 4250   2.588   7.352   3.352
  355DOPC   C1B 4251   2.947   7.411   2.452
  355DOPC   D2B 4252   2.930   7.408   2.752
  355DOPC   C3B 4253   2.939   7.388   3.051
  355DOPC   C4B 4254   2.928   7.391   3.352
  356DOPC   NC3 4255   3.643   2.749   1.552
  356DOPC   PO4 4256   3.671   2.784   1.852
  356DOPC   GL1 4257   3.647   2.702   2.152
  356DOPC   GL2 4258   3.553   2.737   2.152
  356DOPC   C1A 4259   3.737   2.700   2.452
  356DOPC   D2A 4260   3.710   2.738   2.752
  356DOPC   C3A 4261   3.732   2.700   3.051
  356DOPC   C4A 4262   3.710   2.708   3.352
  356DOPC   C1B 4263   3.376   2.751   2.452
  356DOPC   D2B 4264   3.286   2.724   2.752
  356DOPC   C3B 4265   3.306   2.776   3.051
  356DOPC   C4B 4266   3.292   2.775   3.352
  357DOPC   NC3 4267   7.336   2.587   1.552
  357DOPC   PO4 4268   7.395   2.576   1.852
  357DOPC   GL1 4269   7.341   2.589   2.152
  357DOPC   GL2 4270   7.399   2.700   2.152
  357DOPC   C1A 4271   7.403   2.545   2.452
  357DOPC   D2A 4272   7.343   2.556   2.752
  357DOPC   C3A 4273   7.369   2.590   3.051
  357DOPC   C4A 4274   7.374   2.561   3.352
  357DOPC   C1B 4275   7.396   2.951   2.452
  357DOPC   D2B 4276   7.352   2.967   2.752
  357DOPC   C3B 4277   7.387   2.888   3.051
  357DOPC   C4B 4278   7.384   2.959   3.352
  358DOPC   NC3 4279   5.705   1.315   1.552
  358DOPC   PO4 4280   5.660   1.295   1.852
  358DOPC   GL1 4281   5.685   1.299   2.152
  358DOPC   GL2 4282   5.792   1.187   2.152
  358DOPC   C1A 4283   5.614   1.253   2.452
  358DOPC   D2A 4284   5.653   1.291   2.752
  358DOPC   C3A 4285   5.637   1.280   3.051
  358DOPC   C4A 4286   5.673   1.330   3.352
  358DOPC   C1B 4287   5.984   1.106   2.452
  358DOPC   D2B 4288   6.016   1.118   2.752
  358DOPC   C3B 4289   6.027   1.155   3.051
  358DOPC   C4B 4290   6.017   1.141   3.352
  359DOPC   NC3 4291   8.954   1.778   1.552
  359DOPC   PO4 4292   8.984   1.814   1.852
  359DOPC   GL1 4293   9.017   1.815   2.152
  359DOPC   GL2 4294   8.889   2.005   2.152
  359DOPC   C1A 4295   8.957   1.840   2.452
  359DOPC   D2A 4296   8.980   1.793   2.752
  359DOPC   C3A 4297   8.972   1.820   3.051
  359DOPC   C4A 4298   8.977   1.789   3.352
  359DOPC   C1B 4299   8.811   2.096   2.452
  359DOPC   D2B 4300   8.755   2.146   2.752
  359DOPC   C3B 4301   8.814   2.130   3.051
  359DOPC   C4B 4302   8.814   2.117   3.352
  360DOPC   NC3 4303  11.768   0.463   1.552
  360DOPC   PO4 4304  11.773   0.478   1.852
  360DOPC   GL1 4305  11.841   0.538   2.152
  360DOPC   GL2 4306  12.005   0.463   2.152
  360DOPC   C1A 4307  11.788   0.466   2.452
  360DOPC   D2A 4308  11.849   0.534   2.752
  360DOPC   C3A 4309  11.819   0.440   3.051
  360DOPC   C4A 4310  11.784   0.509   3.352
  360DOPC   C1B 4311  12.100   0.417   2.452
  360DOPC   D2B 4312  12.166   0.334   2.752
  360DOPC   C3B 4313  12.143   0.405   3.051
  360DOPC   C4B 4314  12.155   0.413   3.352
  361DOPC   NC3 4315   1.038   2.787   1.552
  361DOPC   PO4 4316   1.005   2.855   1.852
  361DOPC   GL1 4317   1.037   2.820   2.152
  361DOPC   GL2 4318   1.237   2.724   2.152
  361DOPC   C1A 4319   1.091   2.786   2.452
  361DOPC   D2A 4320   1.011   2.825   2.752
  361DOPC   C3A 4321   1.078   2.836   3.051
  361DOPC   C4A 4322   1.062   2.857   3.352
  361DOPC   C1B 4323   1.412   2.674   2.452
  361DOPC   D2B 4324   1.352   2.658   2.752
  361DOPC   C3B 4325   1.381   2.714   3.051
  361DOPC   C4B 4326   1.317   2.621   3.352
  362DOPC   NC3 4327  16.548   1.080   1.552
  362DOPC   PO4 4328  16.502   1.088   1.852
  362DOPC   GL1 4329  16.464   1.020   2.152
  362DOPC   GL2 4330  16.617   1.233   2.152
  362DOPC   C1A 4331  16.501   1.078   2.452
  362DOPC   D2A 4332  16.476   1.075   2.752
  362DOPC   C3A 4333  16.552   1.031   3.051
  362DOPC   C4A 4334  16.515   1.074   3.352
  362DOPC   C1B 4335  16.650   1.343   2.452
  362DOPC   D2B 4336  16.656   1.317   2.752
  362DOPC   C3B 4337  16.685   1.406   3.051
  362DOPC   C4B 4338  16.633   1.340   3.352
  363DOPC   NC3 4339   0.626   6.554   1.552
  363DOPC   PO4 4340   0.644   6.557   1.852
  363DOPC   GL1 4341   0.656   6.626   2.152
  363DOPC   GL2 4342   0.405   6.556   2.152
  363DOPC   C1A 4343   0.608   6.564   2.452
  363DOPC   D2A 4344   0.617   6.612   2.752
  363DOPC   C3A 4345   0.571   6.583   3.051
  363DOPC   C4A 4346   0.579   6.580   3.352
  363DOPC   C1B 4347   0.265   6.541   2.452
  363DOPC   D2B 4348   0.280   6.604   2.752
  363DOPC   C3B 4349   0.252   6.566   3.051
  363DOPC   C4B 4350   0.228   6.592   3.352
  364DOPC   NC3 4351  13.648   6.723   1.552
  364DOPC   PO4 4352  13.614   6.720   1.852
  364DOPC   GL1 4353  13.625   6.678   2.152
  364DOPC   GL2 4354  13.493   6.610   2.152
  364DOPC   C1A 4355  13.679   6.738   2.452
  364DOPC   D2A 4356  13.632   6.698   2.752
  364DOPC   C3A 4357  13.683   6.733   3.051
  364DOPC   C4A 4358  13.618   6.678   3.352
  364DOPC   C1B 4359  13.356   6.433   2.452
  364DOPC   D2B 4360  13.411   6.447   2.752
  364DOPC   C3B 4361  13.373   6.422   3.051
  364DOPC   C4B 4362  13.407   6.477   3.352
  365DOPC   NC3 4363   9.719   4.087   1.552
  365DOPC   PO4 4364   9.799   4.083   1.852
  365DOPC   GL1 4365   9.804   4.104   2.152
  365DOPC   GL2 4366   9.685   4.324   2.152
  365DOPC   C1A 4367   9.799   4.142   2.452
  365DOPC   D2A 4368   9.720   4.146   2.752
  365DOPC   C3A 4369   9.756   4.149   3.051
  365DOPC   C4A 4370   9.755   4.167   3.352
  365DOPC   C1B 4371   9.529   4.454   2.452
  365DOPC   D2B 4372   9.601   4.457   2.752
  365DOPC   C3B 4373   9.534   4.422   3.051
  365DOPC   C4B 4374   9.609   4.466   3.352
  366DOPC   NC3 4375  19.826   2.753   1.552
  366DOPC   PO4 4376  19.804   2.744   1.852
  366DOPC   GL1 4377  19.830   2.734   2.152
  366DOPC   GL2 4378  19.632   2.706   2.152
  366DOPC   C1A 4379  19.870   2.746   2.452
  366DOPC   D2A 4380  19.884   2.790   2.752
  366DOPC   C3A 4381  19.852   2.774   3.051
  366DOPC   C4A 4382  19.892   2.762   3.352
  366DOPC   C1B 4383  19.511   2.706   2.452
  366DOPC   D2B 4384  19.538   2.762   2.752
  366DOPC   C3B 4385  19.534   2.670   3.051
  366DOPC   C4B 4386  19.485   2.683   3.352
  367DOPC   NC3 4387   0.277   3.342   1.552
  367DOPC   PO4 4388   0.367   3.346   1.852
  367DOPC   GL1 4389   0.330   3.398   2.152
  367DOPC   GL2 4390   0.473   3.548   2.152
  367DOPC   C1A 4391   0.330   3.403   2.452
  367DOPC   D2A 4392   0.353   3.349   2.752
  367DOPC   C3A 4393   0.336   3.407   3.051
  367DOPC   C4A 4394   0.357   3.368   3.352
  367DOPC   C1B 4395   0.559   3.660   2.452
  367DOPC   D2B 4396   0.503   3.699   2.752
  367DOPC   C3B 4397   0.563   3.683   3.051
  367DOPC   C4B 4398   0.580   3.613   3.352
  368DOPC   NC3 4399   2.958   8.064   1.552
  368DOPC   PO4 4400   2.926   8.071   1.852
  368DOPC   GL1 4401   2.894   8.070   2.152
  368DOPC   GL2 4402   2.783   8.104   2.152
  368DOPC   C1A 4403   2.893   8.080   2.452
  368DOPC   D2A 4404   2.903   8.084   2.752
  368DOPC   C3A 4405   2.958   8.047   3.051
  368DOPC   C4A 4406   2.894   8.084   3.352
  368DOPC   C1B 4407   2.600   8.213   2.452
  368DOPC   D2B 4408   2.581   8.163   2.752
  368DOPC   C3B 4409   2.543   8.121   3.051
  368DOPC   C4B 4410   2.520   8.177   3.352
  369DOPC   NC3 4411  12.029   4.073   1.552
  369DOPC   PO4 4412  12.040   4.147   1.852
  369DOPC   GL1 4413  11.957   4.055   2.152
  369DOPC   GL2 4414  11.936   4.279   2.152
  369DOPC   C1A 4415  11.946   4.127   2.452
  369DOPC   D2A 4416  12.009   4.148   2.752
  369DOPC   C3A 4417  11.979   4.141   3.051
  369DOPC   C4A 4418  12.040   4.097   3.352
  369DOPC   C1B 4419  11.926   4.492   2.452
  369DOPC   D2B 4420  11.984   4.484   2.752
  369DOPC   C3B 4421  11.928   4.492   3.051
  369DOPC   C4B 4422  11.906   4.431   3.352
  370DOPC   NC3 4423  16.451   9.072   1.552
  370DOPC   PO4 4424  16.528   9.048   1.852
  370DOPC   GL1 4425  16.528   9.052   2.152
  370DOPC   GL2 4426  16.629   8.945   2.152
  370DOPC   C1A 4427  16.479   9.037   2.452
  370DOPC   D2A 4428  16.462   9.055   2.752
  370DOPC   C3A 4429  16.471   9.077   3.051
  370DOPC   C4A 4430  16.471   9.047   3.352
  370DOPC   C1B 4431  16.693   8.750   2.452
  370DOPC   D2B 4432  16.671   8.740   2.752
  370DOPC   C3B 4433  16.742   8.790   3.051
  370DOPC   C4B 4434  16.680   8.743   3.352
  371DOPC   NC3 4435  17.528   8.789   1.552
  371DOPC   PO4 4436  17.561   8.838   1.852
  371DOPC   GL1 4437  17.517   8.863   2.152
  371DOPC   GL2 4438  17.402   8.898   2.152
  371DOPC   C1A 4439  17.482   8.836   2.452
  371DOPC   D2A 4440  17.543   8.885   2.752
  371DOPC   C3A 4441  17.572   8.788   3.051
  371DOPC   C4A 4442  17.493   8.815   3.352
  371DOPC   C1B 4443  17.209   8.925   2.452
  371DOPC   D2B 4444  17.191   8.911   2.752
  371DOPC   C3B 4445  17.213   9.000   3.051
  371DOPC   C4B 4446  17.152   8.965   3.352
  372DOPC   NC3 4447   7.947   5.850   1.552
  372DOPC   PO4 4448   7.955   5.893   1.852
  372DOPC   GL1 4449   8.010   5.868   2.152
  372DOPC   GL2 4450   8.176   5.847   2.152
  372DOPC   C1A 4451   8.002   5.911   2.452
  372DOPC   D2A 4452   7.964   5.857   2.752
  372DOPC   C3A 4453   7.921   5.883   3.051
  372DOPC   C4A 4454   7.962   5.919   3.352
  372DOPC   C1B 4455   8.315   5.717   2.452
  372DOPC   D2B 4456   8.268   5.738   2.752
  372DOPC   C3B 4457   8.257   5.779   3.051
  372DOPC   C4B 4458   8.314   5.794   3.352
  373DOPC   NC3 4459  12.060   5.173   1.552
  373DOPC   PO4 4460  11.989   5.244   1.852
  373DOPC   GL1 4461  12.010   5.216   2.152
  373DOPC   GL2 4462  12.015   5.039   2.152
  373DOPC   C1A 4463  11.980   5.246   2.452
  373DOPC   D2A 4464  12.062   5.231   2.752
  373DOPC   C3A 4465  12.046   5.224   3.051
  373DOPC   C4A 4466  12.021   5.208   3.352
  373DOPC   C1B 4467  11.910   4.858   2.452
  373DOPC   D2B 4468  11.907   4.908   2.752
  373DOPC   C3B 4469  11.960   4.864   3.051
  373DOPC   C4B 4470  11.936   4.915   3.352
  374DOPC   NC3 4471   6.450   7.382   1.552
  374DOPC   PO4 4472   6.384   7.369   1.852
  374DOPC   GL1 4473   6.392   7.358   2.152
  374DOPC   GL2 4474   6.578   7.310   2.152
  374DOPC   C1A 4475   6.421   7.323   2.452
  374DOPC   D2A 4476   6.445   7.351   2.752
  374DOPC   C3A 4477   6.409   7.409   3.051
  374DOPC   C4A 4478   6.451   7.397   3.352
  374DOPC   C1B 4479   6.742   7.339   2.452
  374DOPC   D2B 4480   6.754   7.305   2.752
  374DOPC   C3B 4481   6.741   7.391   3.051
  374DOPC   C4B 4482   6.791   7.313   3.352
  375DOPC   NC3 4483   2.601   9.762   1.552
  375DOPC   PO4 4484   2.585   9.717   1.852
  375DOPC   GL1 4485   2.614   9.678   2.152
  375DOPC   GL2 4486   2.718   9.705   2.152
  375DOPC   C1A 4487   2.592   9.673   2.452
  375DOPC   D2A 4488   2.523   9.748   2.752
  375DOPC   C3A 4489   2.564   9.697   3.051
  375DOPC   C4A 4490   2.581   9.709   3.352
  375DOPC   C1B 4491   2.945   9.628   2.452
  375DOPC   D2B 4492   2.927   9.579   2.752
  375DOPC   C3B 4493   2.920   9.608   3.051
  375DOPC   C4B 4494   2.949   9.653   3.352
  376DOPC   NC3 4495  15.868   1.795   1.552
  376DOPC   PO4 4496  15.886   1.771   1.852
  376DOPC   GL1 4497  15.855   1.842   2.152
  376DOPC   GL2 4498  15.833   1.939   2.152
  376DOPC   C1A 4499  15.880   1.850   2.452
  376DOPC   D2A 4500  15.864   1.793   2.752
  376DOPC   C3A 4501  15.869   1.757   3.051
  376DOPC   C4A 4502  15.860   1.764   3.352
  376DOPC   C1B 4503  15.756   2.122   2.452
  376DOPC   D2B 4504  15.760   2.101   2.752
  376DOPC   C3B 4505  15.805   2.163   3.051
  376DOPC   C4B 4506  15.718   2.178   3.352
  377DOPC   NC3 4507  15.867   0.615   1.552
  377DOPC   PO4 4508  15.850   0.641   1.852
  377DOPC   GL1 4509  15.814   0.584   2.152
  377DOPC   GL2 4510  15.813   0.394   2.152
  377DOPC   C1A 4511  15.903   0.657   2.452
  377DOPC   D2A 4512  15.823   0.581   2.752
  377DOPC   C3A 4513  15.909   0.639   3.051
  377DOPC   C4A 4514  15.867   0.578   3.352
  377DOPC   C1B 4515  15.814   0.256   2.452
  377DOPC   D2B 4516  15.732   0.286   2.752
  377DOPC   C3B 4517  15.766   0.221   3.051
  377DOPC   C4B 4518  15.788   0.280   3.352
  378DOPC   NC3 4519  15.236   0.386   1.552
  378DOPC   PO4 4520  15.211   0.362   1.852
  378DOPC   GL1 4521  15.236   0.339   2.152
  378DOPC   GL2 4522  15.075   0.391   2.152
  378DOPC   C1A 4523  15.188   0.353   2.452
  378DOPC   D2A 4524  15.194   0.390   2.752
  378DOPC   C3A 4525  15.242   0.374   3.051
  378DOPC   C4A 4526  15.186   0.338   3.352
  378DOPC   C1B 4527  14.883   0.517   2.452
  378DOPC   D2B 4528  14.885   0.538   2.752
  378DOPC   C3B 4529  14.929   0.491   3.051
  378DOPC   C4B 4530  14.924   0.542   3.352
  379DOPC   NC3 4531  10.545   3.598   1.552
  379DOPC   PO4 4532  10.625   3.606   1.852
  379DOPC   GL1 4533  10.559   3.635   2.152
  379DOPC   GL2 4534  10.417   3.541   2.152
  379DOPC   C1A 4535  10.552   3.609   2.452
  379DOPC   D2A 4536  10.566   3.570   2.752
  379DOPC   C3A 4537  10.556   3.609   3.051
  379DOPC   C4A 4538  10.589   3.620   3.352
  379DOPC   C1B 4539  10.252   3.435   2.452
  379DOPC   D2B 4540  10.302   3.425   2.752
  379DOPC   C3B 4541  10.311   3.374   3.051
  379DOPC   C4B 4542  10.237   3.388   3.352
  380DOPC   NC3 4543  12.534   2.025   1.552
  380DOPC   PO4 4544  12.570   2.004   1.852
  380DOPC   GL1 4545  12.547   2.048   2.152
  380DOPC   GL2 4546  12.696   1.974   2.152
  380DOPC   C1A 4547  12.546   2.011   2.452
  380DOPC   D2A 4548  12.529   2.052   2.752
  380DOPC   C3A 4549  12.589   2.067   3.051
  380DOPC   C4A 4550  12.584   2.078   3.352
  380DOPC   C1B 4551  12.923   1.931   2.452
  380DOPC   D2B 4552  12.960   1.950   2.752
  380DOPC   C3B 4553  12.944   1.899   3.051
  380DOPC   C4B 4554  12.943   1.874   3.352
  381DOPC   NC3 4555  16.759   8.054   1.552
  381DOPC   PO4 4556  16.805   8.094   1.852
  381DOPC   GL1 4557  16.754   8.093   2.152
  381DOPC   GL2 4558  16.611   8.156   2.152
  381DOPC   C1A 4559  16.809   8.079   2.452
  381DOPC   D2A 4560  16.767   8.039   2.752
  381DOPC   C3A 4561  16.771   8.048   3.051
  381DOPC   C4A 4562  16.734   8.076   3.352
  381DOPC   C1B 4563  16.377   8.203   2.452
  381DOPC   D2B 4564  16.407   8.124   2.752
  381DOPC   C3B 4565  16.414   8.198   3.051
  381DOPC   C4B 4566  16.454   8.141   3.352
  382DOPC   NC3 4567  14.398   5.003   1.552
  382DOPC   PO4 4568  14.459   4.960   1.852
  382DOPC   GL1 4569  14.470   4.977   2.152
  382DOPC   GL2 4570  14.245   5.013   2.152
  382DOPC   C1A 4571  14.389   4.967   2.452
  382DOPC   D2A 4572  14.444   4.932   2.752
  382DOPC   C3A 4573  14.460   4.946   3.051
  382DOPC   C4A 4574  14.392   4.931   3.352
  382DOPC   C1B 4575  14.158   5.169   2.452
  382DOPC   D2B 4576  14.103   5.116   2.752
  382DOPC   C3B 4577  14.141   5.165   3.051
  382DOPC   C4B 4578  14.161   5.161   3.352
  383DOPC   NC3 4579   9.823   4.952   1.552
  383DOPC   PO4 4580   9.760   4.988   1.852
  383DOPC   GL1 4581   9.805   4.973   2.152
  383DOPC   GL2 4582   9.668   5.018   2.152
  383DOPC   C1A 4583   9.828   4.987   2.452
  383DOPC   D2A 4584   9.836   4.970   2.752
  383DOPC   C3A 4585   9.844   4.967   3.051
  383DOPC   C4A 4586   9.789   4.907   3.352
  383DOPC   C1B 4587   9.543   5.199   2.452
  383DOPC   D2B 4588   9.550   5.185   2.752
  383DOPC   C3B 4589   9.541   5.141   3.051
  383DOPC   C4B 4590   9.541   5.196   3.352
  384DOPC   NC3 4591  15.919   7.443   1.552
  384DOPC   PO4 4592  15.912   7.504   1.852
  384DOPC   GL1 4593  15.955   7.517   2.152
  384DOPC   GL2 4594  15.838   7.396   2.152
  384DOPC   C1A 4595  15.923   7.501   2.452
  384DOPC   D2A 4596  15.940   7.495   2.752
  384DOPC   C3A 4597  15.925   7.462   3.051
  384DOPC   C4A 4598  15.950   7.463   3.352
  384DOPC   C1B 4599  15.690   7.228   2.452
  384DOPC   D2B 4600  15.670   7.286   2.752
  384DOPC   C3B 4601  15.654   7.233   3.051
  384DOPC   C4B 4602  15.701   7.249   3.352
  385DOPC   NC3 4603   9.591   1.369   1.552
  385DOPC   PO4 4604   9.607   1.382   1.852
  385DOPC   GL1 4605   9.602   1.356   2.152
  385DOPC   GL2 4606   9.660   1.169   2.152
  385DOPC   C1A 4607   9.580   1.399   2.452
  385DOPC   D2A 4608   9.557   1.319   2.752
  385DOPC   C3A 4609   9.524   1.313   3.051
  385DOPC   C4A 4610   9.575   1.349   3.352
  385DOPC   C1B 4611   9.793   1.086   2.452
  385DOPC   D2B 4612   9.811   1.025   2.752
  385DOPC   C3B 4613   9.805   1.067   3.051
  385DOPC   C4B 4614   9.797   1.065   3.352
  386DOPC   NC3 4615  14.899   8.183   1.552
  386DOPC   PO4 4616  14.856   8.187   1.852
  386DOPC   GL1 4617  14.899   8.217   2.152
  386DOPC   GL2 4618  15.036   8.148   2.152
  386DOPC   C1A 4619  14.865   8.217   2.452
  386DOPC   D2A 4620  14.905   8.168   2.752
  386DOPC   C3A 4621  14.911   8.147   3.051
  386DOPC   C4A 4622  14.926   8.224   3.352
  386DOPC   C1B 4623  15.178   8.082   2.452
  386DOPC   D2B 4624  15.231   8.071   2.752
  386DOPC   C3B 4625  15.253   8.099   3.051
  386DOPC   C4B 4626  15.238   8.059   3.352
  387DOPC   NC3 4627  15.052   7.485   1.552
  387DOPC   PO4 4628  15.119   7.498   1.852
  387DOPC   GL1 4629  15.047   7.487   2.152
  387DOPC   GL2 4630  15.057   7.353   2.152
  387DOPC   C1A 4631  15.103   7.536   2.452
  387DOPC   D2A 4632  15.063   7.521   2.752
  387DOPC   C3A 4633  15.095   7.535   3.051
  387DOPC   C4A 4634  15.047   7.578   3.352
  387DOPC   C1B 4635  15.053   7.161   2.452
  387DOPC   D2B 4636  15.062   7.232   2.752
  387DOPC   C3B 4637  14.981   7.217   3.051
  387DOPC   C4B 4638  15.057   7.153   3.352
  388DOPC   NC3 4639  13.668   4.948   1.552
  388DOPC   PO4 4640  13.674   4.886   1.852
  388DOPC   GL1 4641  13.616   4.905   2.152
  388DOPC   GL2 4642  13.471   5.090   2.152
  388DOPC   C1A 4643  13.634   4.958   2.452
  388DOPC   D2A 4644  13.616   4.894   2.752
  388DOPC   C3A 4645  13.598   4.897   3.051
  388DOPC   C4A 4646  13.675   4.936   3.352
  388DOPC   C1B 4647  13.415   5.164   2.452
  388DOPC   D2B 4648  13.438   5.215   2.752
  388DOPC   C3B 4649  13.371   5.169   3.051
  388DOPC   C4B 4650  13.352   5.161   3.352
  389DOPC   NC3 4651  19.614   1.053   1.552
  389DOPC   PO4 4652  19.655   1.069   1.852
  389DOPC   GL1 4653  19.647   1.010   2.152
  389DOPC   GL2 4654  19.647   1.174   2.152
  389DOPC   C1A 4655  19.680   1.026   2.452
  389DOPC   D2A 4656  19.661   1.037   2.752
  389DOPC   C3A 4657  19.647   1.025   3.051
  389DOPC   C4A 4658  19.617   0.986   3.352
  389DOPC   C1B 4659  19.640   1.407   2.452
  389DOPC   D2B 4660  19.680   1.428   2.752
  389DOPC   C3B 4661  19.684   1.429   3.051
  389DOPC   C4B 4662  19.664   1.425   3.352
  390DOPC   NC3 4663  12.961   4.362   1.552
  390DOPC   PO4 4664  12.865   4.289   1.852
  390DOPC   GL1 4665  12.933   4.361   2.152
  390DOPC   GL2 4666  12.753   4.308   2.152
  390DOPC   C1A 4667  12.952   4.310   2.452
  390DOPC   D2A 4668  12.880   4.327   2.752
  390DOPC   C3A 4669  12.919   4.300   3.051
  390DOPC   C4A 4670  12.865   4.386   3.352
  390DOPC   C1B 4671  12.524   4.222   2.452
  390DOPC   D2B 4672  12.590   4.232   2.752
  390DOPC   C3B 4673  12.576   4.211   3.051
  390DOPC   C4B 4674  12.571   4.245   3.352
  391DOPC   NC3 4675   3.597   5.954   1.552
  391DOPC   PO4 4676   3.668   5.958   1.852
  391DOPC   GL1 4677   3.683   5.969   2.152
  391DOPC   GL2 4678   3.515   5.779   2.152
  391DOPC   C1A 4679   3.678   5.900   2.452
  391DOPC   D2A 4680   3.658   5.960   2.752
  391DOPC   C3A 4681   3.641   5.969   3.051
  391DOPC   C4A 4682   3.624   5.980   3.352
  391DOPC   C1B 4683   3.430   5.698   2.452
  391DOPC   D2B 4684   3.369   5.689   2.752
  391DOPC   C3B 4685   3.343   5.728   3.051
  391DOPC   C4B 4686   3.420   5.697   3.352
  392DOPC   NC3 4687   6.507   7.937   1.552
  392DOPC   PO4 4688   6.531   7.916   1.852
  392DOPC   GL1 4689   6.568   7.938   2.152
  392DOPC   GL2 4690   6.634   8.167   2.152
  392DOPC   C1A 4691   6.541   8.002   2.452
  392DOPC   D2A 4692   6.525   7.959   2.752
  392DOPC   C3A 4693   6.549   7.959   3.051
  392DOPC   C4A 4694   6.505   7.990   3.352
  392DOPC   C1B 4695   6.678   8.259   2.452
  392DOPC   D2B 4696   6.672   8.274   2.752
  392DOPC   C3B 4697   6.677   8.285   3.051
  392DOPC   C4B 4698   6.669   8.276   3.352
  393DOPC   NC3 4699  11.308   5.179   1.552
  393DOPC   PO4 4700  11.281   5.199   1.852
  393DOPC   GL1 4701  11.305   5.198   2.152
  393DOPC   GL2 4702  11.182   5.061   2.152
  393DOPC   C1A 4703  11.303   5.207   2.452
  393DOPC   D2A 4704  11.260   5.254   2.752
  393DOPC   C3A 4705  11.251   5.240   3.051
  393DOPC   C4A 4706  11.223   5.189   3.352
  393DOPC   C1B 4707  11.158   4.917   2.452
  393DOPC   D2B 4708  11.129   4.865   2.752
  393DOPC   C3B 4709  11.151   4.897   3.051
  393DOPC   C4B 4710  11.153   4.870   3.352
  394DOPC   NC3 4711  17.977   8.126   1.552
  394DOPC   PO4 4712  17.991   8.157   1.852
  394DOPC   GL1 4713  18.005   8.195   2.152
  394DOPC   GL2 4714  18.171   8.081   2.152
  394DOPC   C1A 4715  17.946   8.132   2.452
  394DOPC   D2A 4716  17.928   8.207   2.752
  394DOPC   C3A 4717  17.934   8.204   3.051
  394DOPC   C4A 4718  18.001   8.165   3.352
  394DOPC   C1B 4719  18.304   8.084   2.452
  394DOPC   D2B 4720  18.297   8.092   2.752
  394DOPC   C3B 4721  18.296   8.072   3.051
  394DOPC   C4B 4722  18.255   8.072   3.352
  395DOPC   NC3 4723   1.853   4.189   1.552
  395DOPC   PO4 4724   1.877   4.123   1.852
  395DOPC   GL1 4725   1.815   4.208   2.152
  395DOPC   GL2 4726   1.966   4.284   2.152
  395DOPC   C1A 4727   1.834   4.182   2.452
  395DOPC   D2A 4728   1.850   4.160   2.752
  395DOPC   C3A 4729   1.879   4.166   3.051
  395DOPC   C4A 4730   1.814   4.145   3.352
  395DOPC   C1B 4731   2.130   4.394   2.452
  395DOPC   D2B 4732   2.099   4.437   2.752
  395DOPC   C3B 4733   2.125   4.430   3.051
  395DOPC   C4B 4734   2.149   4.363   3.352
  396DOPC   NC3 4735   9.445   2.820   1.552
  396DOPC   PO4 4736   9.453   2.800   1.852
  396DOPC   GL1 4737   9.524   2.811   2.152
  396DOPC   GL2 4738   9.664   2.713   2.152
  396DOPC   C1A 4739   9.495   2.802   2.452
  396DOPC   D2A 4740   9.456   2.757   2.752
  396DOPC   C3A 4741   9.465   2.830   3.051
  396DOPC   C4A 4742   9.529   2.838   3.352
  396DOPC   C1B 4743   9.793   2.721   2.452
  396DOPC   D2B 4744   9.876   2.735   2.752
  396DOPC   C3B 4745   9.851   2.679   3.051
  396DOPC   C4B 4746   9.831   2.722   3.352
  397DOPC   NC3 4747  12.839   9.481   1.552
  397DOPC   PO4 4748  12.827   9.489   1.852
  397DOPC   GL1 4749  12.776   9.530   2.152
  397DOPC   GL2 4750  12.742   9.667   2.152
  397DOPC   C1A 4751  12.853   9.512   2.452
  397DOPC   D2A 4752  12.838   9.516   2.752
  397DOPC   C3A 4753  12.833   9.474   3.051
  397DOPC   C4A 4754  12.855   9.514   3.352
  397DOPC   C1B 4755  12.664   9.826   2.452
  397DOPC   D2B 4756  12.690   9.870   2.752
  397DOPC   C3B 4757  12.645   9.853   3.051
  397DOPC   C4B 4758  12.688   9.856   3.352
  398DOPC   NC3 4759   3.675   8.835   1.552
  398DOPC   PO4 4760   3.733   8.902   1.852
  398DOPC   GL1 4761   3.661   8.839   2.152
  398DOPC   GL2 4762   3.474   8.870   2.152
  398DOPC   C1A 4763   3.658   8.846   2.452
  398DOPC   D2A 4764   3.636   8.882   2.752
  398DOPC   C3A 4765   3.641   8.820   3.051
  398DOPC   C4A 4766   3.637   8.818   3.352
  398DOPC   C1B 4767   3.304   8.919   2.452
  398DOPC   D2B 4768   3.376   8.962   2.752
  398DOPC   C3B 4769   3.367   8.969   3.051
  398DOPC   C4B 4770   3.357   8.896   3.352
  399DOPC   NC3 4771   7.424   1.772   1.552
  399DOPC   PO4 4772   7.417   1.829   1.852
  399DOPC   GL1 4773   7.460   1.839   2.152
  399DOPC   GL2 4774   7.337   1.990   2.152
  399DOPC   C1A 4775   7.459   1.792   2.452
  399DOPC   D2A 4776   7.441   1.817   2.752
  399DOPC   C3A 4777   7.445   1.816   3.051
  399DOPC   C4A 4778   7.474   1.817   3.352
  399DOPC   C1B 4779   7.258   2.166   2.452
  399DOPC   D2B 4780   7.303   2.085   2.752
  399DOPC   C3B 4781   7.304   2.114   3.051
  399DOPC   C4B 4782   7.252   2.169   3.352
  400DOPC   NC3 4783   8.095   2.926   1.552
  400DOPC   PO4 4784   8.159   2.889   1.852
  400DOPC   GL1 4785   8.118   2.875   2.152
  400DOPC   GL2 4786   8.118   2.744   2.152
  400DOPC   C1A 4787   8.103   2.920   2.452
  400DOPC   D2A 4788   8.132   2.899   2.752
  400DOPC   C3A 4789   8.180   2.903   3.051
  400DOPC   C4A 4790   8.152   2.962   3.352
  400DOPC   C1B 4791   8.116   2.553   2.452
  400DOPC   D2B 4792   8.164   2.613   2.752
  400DOPC   C3B 4793   8.087   2.525   3.051
  400DOPC   C4B 4794   8.083   2.537   3.352
  401DOPC   NC3 4795  12.091   8.227   1.552
  401DOPC   PO4 4796  12.153   8.282   1.852
  401DOPC   GL1 4797  12.070   8.215   2.152
  401DOPC   GL2 4798  11.952   8.081   2.152
  401DOPC   C1A 4799  12.144   8.284   2.452
  401DOPC   D2A 4800  12.130   8.232   2.752
  401DOPC   C3A 4801  12.075   8.245   3.051
  401DOPC   C4A 4802  12.139   8.246   3.352
  401DOPC   C1B 4803  11.843   8.015   2.452
  401DOPC   D2B 4804  11.874   7.977   2.752
  401DOPC   C3B 4805  11.805   8.064   3.051
  401DOPC   C4B 4806  11.873   8.029   3.352
  402DOPC   NC3 4807   4.124   5.756   1.552
  402DOPC   PO4 4808   4.127   5.738   1.852
  402DOPC   GL1 4809   4.179   5.727   2.152
  402DOPC   GL2 4810   4.288   5.856   2.152
  402DOPC   C1A 4811   4.184   5.751   2.452
  402DOPC   D2A 4812   4.142   5.711   2.752
  402DOPC   C3A 4813   4.169   5.748   3.051
  402DOPC   C4A 4814   4.117   5.666   3.352
  402DOPC   C1B 4815   4.436   5.937   2.452
  402DOPC   D2B 4816   4.470   5.949   2.752
  402DOPC   C3B 4817   4.457   5.921   3.051
  402DOPC   C4B 4818   4.450   5.962   3.352
  403DOPC   NC3 4819  14.896   2.018   1.552
  403DOPC   PO4 4820  14.859   2.032   1.852
  403DOPC   GL1 4821  14.827   1.979   2.152
  403DOPC   GL2 4822  15.027   1.995   2.152
  403DOPC   C1A 4823  14.859   2.020   2.452
  403DOPC   D2A 4824  14.915   2.065   2.752
  403DOPC   C3A 4825  14.906   2.037   3.051
  403DOPC   C4A 4826  14.861   2.052   3.352
  403DOPC   C1B 4827  15.192   1.961   2.452
  403DOPC   D2B 4828  15.263   1.927   2.752
  403DOPC   C3B 4829  15.188   1.943   3.051
  403DOPC   C4B 4830  15.188   1.965   3.352
  404DOPC   NC3 4831   6.787   3.430   1.552
  404DOPC   PO4 4832   6.727   3.459   1.852
  404DOPC   GL1 4833   6.708   3.397   2.152
  404DOPC   GL2 4834   6.601   3.508   2.152
  404DOPC   C1A 4835   6.751   3.451   2.452
  404DOPC   D2A 4836   6.770   3.423   2.752
  404DOPC   C3A 4837   6.701   3.455   3.051
  404DOPC   C4A 4838   6.711   3.422   3.352
  404DOPC   C1B 4839   6.395   3.600   2.452
  404DOPC   D2B 4840   6.454   3.604   2.752
  404DOPC   C3B 4841   6.473   3.632   3.051
  404DOPC   C4B 4842   6.433   3.586   3.352
  405DOPC   NC3 4843   4.888   5.218   1.552
  405DOPC   PO4 4844   4.911   5.129   1.852
  405DOPC   GL1 4845   4.936   5.214   2.152
  405DOPC   GL2 4846   5.005   5.044   2.152
  405DOPC   C1A 4847   4.874   5.146   2.452
  405DOPC   D2A 4848   4.961   5.162   2.752
  405DOPC   C3A 4849   4.964   5.182   3.051
  405DOPC   C4A 4850   4.880   5.221   3.352
  405DOPC   C1B 4851   5.204   4.965   2.452
  405DOPC   D2B 4852   5.149   4.939   2.752
  405DOPC   C3B 4853   5.136   4.933   3.051
  405DOPC   C4B 4854   5.195   4.929   3.352
  406DOPC   NC3 4855   7.292   0.583   1.552
  406DOPC   PO4 4856   7.333   0.638   1.852
  406DOPC   GL1 4857   7.370   0.615   2.152
  406DOPC   GL2 4858   7.369   0.424   2.152
  406DOPC   C1A 4859   7.332   0.650   2.452
  406DOPC   D2A 4860   7.315   0.658   2.752
  406DOPC   C3A 4861   7.314   0.582   3.051
  406DOPC   C4A 4862   7.286   0.571   3.352
  406DOPC   C1B 4863   7.348   0.285   2.452
  406DOPC   D2B 4864   7.369   0.227   2.752
  406DOPC   C3B 4865   7.442   0.293   3.051
  406DOPC   C4B 4866   7.413   0.223   3.352
  407DOPC   NC3 4867  17.562   8.054   1.552
  407DOPC   PO4 4868  17.531   8.118   1.852
  407DOPC   GL1 4869  17.561   8.097   2.152
  407DOPC   GL2 4870  17.384   8.099   2.152
  407DOPC   C1A 4871  17.502   8.089   2.452
  407DOPC   D2A 4872  17.483   8.038   2.752
  407DOPC   C3A 4873  17.514   8.039   3.051
  407DOPC   C4A 4874  17.507   8.043   3.352
  407DOPC   C1B 4875  17.175   8.158   2.452
  407DOPC   D2B 4876  17.222   8.138   2.752
  407DOPC   C3B 4877  17.193   8.164   3.051
  407DOPC   C4B 4878  17.211   8.220   3.352
  408DOPC   NC3 4879   5.144   1.860   1.552
  408DOPC   PO4 4880   5.215   1.795   1.852
  408DOPC   GL1 4881   5.206   1.865   2.152
  408DOPC   GL2 4882   5.076   1.936   2.152
  408DOPC   C1A 4883   5.124   1.883   2.452
  408DOPC   D2A 4884   5.182   1.868   2.752
  408DOPC   C3A 4885   5.158   1.810   3.051
  408DOPC   C4A 4886   5.122   1.838   3.352
  408DOPC   C1B 4887   4.935   2.112   2.452
  408DOPC   D2B 4888   4.888   2.092   2.752
  408DOPC   C3B 4889   4.964   2.079   3.051
  408DOPC   C4B 4890   4.884   2.065   3.352
  409DOPC   NC3 4891   3.398   4.887   1.552
  409DOPC   PO4 4892   3.422   4.973   1.852
  409DOPC   GL1 4893   3.387   4.956   2.152
  409DOPC   GL2 4894   3.492   5.084   2.152
  409DOPC   C1A 4895   3.354   4.968   2.452
  409DOPC   D2A 4896   3.355   4.933   2.752
  409DOPC   C3A 4897   3.340   4.929   3.051
  409DOPC   C4A 4898   3.403   4.907   3.352
  409DOPC   C1B 4899   3.673   5.176   2.452
  409DOPC   D2B 4900   3.619   5.210   2.752
  409DOPC   C3B 4901   3.662   5.126   3.051
  409DOPC   C4B 4902   3.605   5.149   3.352
  410DOPC   NC3 4903  17.281   0.257   1.552
  410DOPC   PO4 4904  17.239   0.304   1.852
  410DOPC   GL1 4905  17.217   0.335   2.152
  410DOPC   GL2 4906  17.340   0.402   2.152
  410DOPC   C1A 4907  17.214   0.314   2.452
  410DOPC   D2A 4908  17.266   0.244   2.752
  410DOPC   C3A 4909  17.218   0.267   3.051
  410DOPC   C4A 4910  17.215   0.265   3.352
  410DOPC   C1B 4911  17.421   0.539   2.452
  410DOPC   D2B 4912  17.423   0.538   2.752
  410DOPC   C3B 4913  17.466   0.539   3.051
  410DOPC   C4B 4914  17.508   0.614   3.352
  411DOPC   NC3 4915  18.870   8.727   1.552
  411DOPC   PO4 4916  18.860   8.749   1.852
  411DOPC   GL1 4917  18.846   8.757   2.152
  411DOPC   GL2 4918  18.880   8.849   2.152
  411DOPC   C1A 4919  18.851   8.723   2.452
  411DOPC   D2A 4920  18.887   8.724   2.752
  411DOPC   C3A 4921  18.850   8.759   3.051
  411DOPC   C4A 4922  18.844   8.759   3.352
  411DOPC   C1B 4923  18.957   9.074   2.452
  411DOPC   D2B 4924  18.977   9.105   2.752
  411DOPC   C3B 4925  18.922   9.039   3.051
  411DOPC   C4B 4926  18.978   9.059   3.352
  412DOPC   NC3 4927  16.773   4.387   1.552
  412DOPC   PO4 4928  16.758   4.402   1.852
  412DOPC   GL1 4929  16.734   4.369   2.152
  412DOPC   GL2 4930  16.580   4.304   2.152
  412DOPC   C1A 4931  16.685   4.399   2.452
  412DOPC   D2A 4932  16.692   4.390   2.752
  412DOPC   C3A 4933  16.692   4.356   3.051
  412DOPC   C4A 4934  16.742   4.362   3.352
  412DOPC   C1B 4935  16.469   4.147   2.452
  412DOPC   D2B 4936  16.450   4.158   2.752
  412DOPC   C3B 4937  16.456   4.146   3.051
  412DOPC   C4B 4938  16.474   4.154   3.352
  413DOPC   NC3 4939   6.481   1.094   1.552
  413DOPC   PO4 4940   6.443   1.046   1.852
  413DOPC   GL1 4941   6.440   1.088   2.152
  413DOPC   GL2 4942   6.618   1.251   2.152
  413DOPC   C1A 4943   6.481   1.041   2.452
  413DOPC   D2A 4944   6.504   1.100   2.752
  413DOPC   C3A 4945   6.439   1.034   3.051
  413DOPC   C4A 4946   6.463   1.112   3.352
  413DOPC   C1B 4947   6.755   1.344   2.452
  413DOPC   D2B 4948   6.730   1.310   2.752
  413DOPC   C3B 4949   6.691   1.323   3.051
  413DOPC   C4B 4950   6.744   1.320   3.352
  414DOPC   NC3 4951   8.124   8.302   1.552
  414DOPC   PO4 4952   8.152   8.320   1.852
  414DOPC   GL1 4953   8.153   8.336   2.152
  414DOPC   GL2 4954   8.135   8.113   2.152
  414DOPC   C1A 4955   8.177   8.339   2.452
  414DOPC   D2A 4956   8.183   8.306   2.752
  414DOPC   C3A 4957   8.142   8.332   3.051
  414DOPC   C4A 4958   8.148   8.346   3.352
  414DOPC   C1B 4959   8.061   7.902   2.452
  414DOPC   D2B 4960   8.146   7.910   2.752
  414DOPC   C3B 4961   8.135   7.972   3.051
  414DOPC   C4B 4962   8.119   7.950   3.352
  415DOPC   NC3 4963   4.333   0.621   1.552
  415DOPC   PO4 4964   4.327   0.643   1.852
  415DOPC   GL1 4965   4.287   0.611   2.152
  415DOPC   GL2 4966   4.266   0.451   2.152
  415DOPC   C1A 4967   4.315   0.585   2.452
  415DOPC   D2A 4968   4.264   0.646   2.752
  415DOPC   C3A 4969   4.317   0.572   3.051
  415DOPC   C4A 4970   4.330   0.641   3.352
  415DOPC   C1B 4971   4.288   0.251   2.452
  415DOPC   D2B 4972   4.284   0.237   2.752
  415DOPC   C3B 4973   4.240   0.288   3.051
  415DOPC   C4B 4974   4.242   0.284   3.352
  416DOPC   NC3 4975  16.634   6.781   1.552
  416DOPC   PO4 4976  16.600   6.730   1.852
  416DOPC   GL1 4977  16.624   6.725   2.152
  416DOPC   GL2 4978  16.540   6.588   2.152
  416DOPC   C1A 4979  16.596   6.740   2.452
  416DOPC   D2A 4980  16.671   6.753   2.752
  416DOPC   C3A 4981  16.664   6.728   3.051
  416DOPC   C4A 4982  16.594   6.733   3.352
  416DOPC   C1B 4983  16.558   6.389   2.452
  416DOPC   D2B 4984  16.573   6.415   2.752
  416DOPC   C3B 4985  16.493   6.373   3.051
  416DOPC   C4B 4986  16.526   6.456   3.352
  417DOPC   NC3 4987   5.246   6.564   1.552
  417DOPC   PO4 4988   5.270   6.577   1.852
  417DOPC   GL1 4989   5.197   6.513   2.152
  417DOPC   GL2 4990   5.014   6.624   2.152
  417DOPC   C1A 4991   5.207   6.514   2.452
  417DOPC   D2A 4992   5.214   6.506   2.752
  417DOPC   C3A 4993   5.195   6.557   3.051
  417DOPC   C4A 4994   5.238   6.539   3.352
  417DOPC   C1B 4995   4.925   6.609   2.452
  417DOPC   D2B 4996   4.922   6.610   2.752
  417DOPC   C3B 4997   4.849   6.649   3.051
  417DOPC   C4B 4998   4.832   6.606   3.352
  418DOPC   NC3 4999  19.753   5.164   1.552
  418DOPC   PO4 5000  19.761   5.181   1.852
  418DOPC   GL1 5001  19.726   5.165   2.152
  418DOPC   GL2 5002  19.696   5.077   2.152
  418DOPC   C1A 5003  19.736   5.256   2.452
  418DOPC   D2A 5004  19.759   5.245   2.752
  418DOPC   C3A 5005  19.707   5.190   3.051
  418DOPC   C4A 5006  19.751   5.179   3.352
  418DOPC   C1B 5007  19.567   4.916   2.452
  418DOPC   D2B 5008  19.543   4.845   2.752
  418DOPC   C3B 5009  19.612   4.912   3.051
  418DOPC   C4B 5010  19.619   4.845   3.352
  419DOPC   NC3 5011   0.231   0.465   1.552
  419DOPC   PO4 5012   0.266   0.484   1.852
  419DOPC   GL1 5013   0.295   0.410   2.152
  419DOPC   GL2 5014   0.450   0.446   2.152
  419DOPC   C1A 5015   0.222   0.405   2.452
  419DOPC   D2A 5016   0.277   0.480   2.752
  419DOPC   C3A 5017   0.225   0.463   3.051
  419DOPC   C4A 5018   0.276   0.453   3.352
  419DOPC   C1B 5019   0.594   0.452   2.452
  419DOPC   D2B 5020   0.623   0.404   2.752
  419DOPC   C3B 5021   0.604   0.377   3.051
  419DOPC   C4B 5022   0.629   0.467   3.352
  420DOPC   NC3 5023   5.989   6.681   1.552
  420DOPC   PO4 5024   5.908   6.763   1.852
  420DOPC   GL1 5025   5.938   6.697   2.152
  420DOPC   GL2 5026   5.858   6.597   2.152
  420DOPC   C1A 5027   5.968   6.711   2.452
  420DOPC   D2A 5028   5.987   6.715   2.752
  420DOPC   C3A 5029   5.930   6.721   3.051
  420DOPC   C4A 5030   5.994   6.685   3.352
  420DOPC   C1B 5031   5.665   6.478   2.452
  420DOPC   D2B 5032   5.702   6.468   2.752
  420DOPC   C3B 5033   5.658   6.473   3.051
  420DOPC   C4B 5034   5.730   6.499   3.352
  421DOPC   NC3 5035   9.661   9.528   1.552
  421DOPC   PO4 5036   9.618   9.500   1.852
  421DOPC   GL1 5037   9.613   9.511   2.152
  421DOPC   GL2 5038   9.675   9.712   2.152
  421DOPC   C1A 5039   9.671   9.471   2.452
  421DOPC   D2A 5040   9.700   9.455   2.752
  421DOPC   C3A 5041   9.675   9.453   3.051
  421DOPC   C4A 5042   9.611   9.440   3.352
  421DOPC   C1B 5043   9.707   9.838   2.452
  421DOPC   D2B 5044   9.652   9.871   2.752
  421DOPC   C3B 5045   9.630   9.891   3.051
  421DOPC   C4B 5046   9.622   9.869   3.352
  422DOPC   NC3 5047  14.196   2.631   1.552
  422DOPC   PO4 5048  14.130   2.570   1.852
  422DOPC   GL1 5049  14.120   2.589   2.152
  422DOPC   GL2 5050  14.276   2.776   2.152
  422DOPC   C1A 5051  14.107   2.579   2.452
  422DOPC   D2A 5052  14.172   2.657   2.752
  422DOPC   C3A 5053  14.175   2.610   3.051
  422DOPC   C4A 5054  14.181   2.596   3.352
  422DOPC   C1B 5055  14.370   2.894   2.452
  422DOPC   D2B 5056  14.358   2.840   2.752
  422DOPC   C3B 5057  14.448   2.860   3.051
  422DOPC   C4B 5058  14.410   2.832   3.352
  423DOPC   NC3 5059  13.295   3.534   1.552
  423DOPC   PO4 5060  13.349   3.537   1.852
  423DOPC   GL1 5061  13.362   3.529   2.152
  423DOPC   GL2 5062  13.540   3.467   2.152
  423DOPC   C1A 5063  13.319   3.528   2.452
  423DOPC   D2A 5064  13.303   3.584   2.752
  423DOPC   C3A 5065  13.339   3.578   3.051
  423DOPC   C4A 5066  13.372   3.536   3.352
  423DOPC   C1B 5067  13.651   3.477   2.452
  423DOPC   D2B 5068  13.690   3.435   2.752
  423DOPC   C3B 5069  13.652   3.492   3.051
  423DOPC   C4B 5070  13.675   3.472   3.352
  424DOPC   NC3 5071  17.977   5.727   1.552
  424DOPC   PO4 5072  17.972   5.770   1.852
  424DOPC   GL1 5073  17.986   5.730   2.152
  424DOPC   GL2 5074  18.146   5.866   2.152
  424DOPC   C1A 5075  17.932   5.805   2.452
  424DOPC   D2A 5076  17.906   5.814   2.752
  424DOPC   C3A 5077  17.974   5.731   3.051
  424DOPC   C4A 5078  17.931   5.800   3.352
  424DOPC   C1B 5079  18.284   5.883   2.452
  424DOPC   D2B 5080  18.274   5.880   2.752
  424DOPC   C3B 5081  18.255   5.900   3.051
  424DOPC   C4B 5082  18.338   5.890   3.352
  425DOPC   NC3 5083  15.942   8.275   1.552
  425DOPC   PO4 5084  15.874   8.275   1.852
  425DOPC   GL1 5085  15.910   8.262   2.152
  425DOPC   GL2 5086  15.839   8.154   2.152
  425DOPC   C1A 5087  15.887   8.279   2.452
  425DOPC   D2A 5088  15.907   8.286   2.752
  425DOPC   C3A 5089  15.912   8.247   3.051
  425DOPC   C4A 5090  15.908   8.244   3.352
  425DOPC   C1B 5091  15.690   7.937   2.452
  425DOPC   D2B 5092  15.749   7.938   2.752
  425DOPC   C3B 5093  15.709   8.017   3.051
  425DOPC   C4B 5094  15.765   7.944   3.352
  426DOPC   NC3 5095   0.608   5.932   1.552
  426DOPC   PO4 5096   0.583   5.914   1.852
  426DOPC   GL1 5097   0.551   5.942   2.152
  426DOPC   GL2 5098   0.454   5.783   2.152
  426DOPC   C1A 5099   0.551   5.968   2.452
  426DOPC   D2A 5100   0.595   5.988   2.752
  426DOPC   C3A 5101   0.608   5.946   3.051
  426DOPC   C4A 5102   0.607   5.978   3.352
  426DOPC   C1B 5103   0.309   5.663   2.452
  426DOPC   D2B 5104   0.291   5.722   2.752
  426DOPC   C3B 5105   0.258   5.716   3.051
  426DOPC   C4B 5106   0.316   5.698   3.352
  427DOPC   NC3 5107   1.214   8.765   1.552
  427DOPC   PO4 5108   1.191   8.731   1.852
  427DOPC   GL1 5109   1.218   8.761   2.152
  427DOPC   GL2 5110   1.164   8.930   2.152
  427DOPC   C1A 5111   1.266   8.749   2.452
  427DOPC   D2A 5112   1.249   8.719   2.752
  427DOPC   C3A 5113   1.174   8.738   3.051
  427DOPC   C4A 5114   1.214   8.703   3.352
  427DOPC   C1B 5115   1.226   9.084   2.452
  427DOPC   D2B 5116   1.184   9.036   2.752
  427DOPC   C3B 5117   1.145   9.085   3.051
  427DOPC   C4B 5118   1.208   9.029   3.352
  428DOPC   NC3 5119   7.924   1.978   1.552
  428DOPC   PO4 5120   7.921   2.069   1.852
  428DOPC   GL1 5121   7.980   2.061   2.152
  428DOPC   GL2 5122   8.085   1.968   2.152
  428DOPC   C1A 5123   7.982   2.032   2.452
  428DOPC   D2A 5124   7.913   2.071   2.752
  428DOPC   C3A 5125   7.948   2.009   3.051
  428DOPC   C4A 5126   8.005   2.012   3.352
  428DOPC   C1B 5127   8.335   1.923   2.452
  428DOPC   D2B 5128   8.249   1.917   2.752
  428DOPC   C3B 5129   8.332   1.883   3.051
  428DOPC   C4B 5130   8.334   1.929   3.352
  429DOPC   NC3 5131   2.860   3.406   1.552
  429DOPC   PO4 5132   2.824   3.311   1.852
  429DOPC   GL1 5133   2.793   3.313   2.152
  429DOPC   GL2 5134   2.756   3.499   2.152
  429DOPC   C1A 5135   2.815   3.334   2.452
  429DOPC   D2A 5136   2.821   3.325   2.752
  429DOPC   C3A 5137   2.845   3.386   3.051
  429DOPC   C4A 5138   2.840   3.337   3.352
  429DOPC   C1B 5139   2.619   3.614   2.452
  429DOPC   D2B 5140   2.683   3.699   2.752
  429DOPC   C3B 5141   2.598   3.642   3.051
  429DOPC   C4B 5142   2.665   3.707   3.352
  430DOPC   NC3 5143  11.293   7.480   1.552
  430DOPC   PO4 5144  11.302   7.466   1.852
  430DOPC   GL1 5145  11.297   7.546   2.152
  430DOPC   GL2 5146  11.197   7.380   2.152
  430DOPC   C1A 5147  11.269   7.538   2.452
  430DOPC   D2A 5148  11.332   7.500   2.752
  430DOPC   C3A 5149  11.303   7.492   3.051
  430DOPC   C4A 5150  11.337   7.506   3.352
  430DOPC   C1B 5151  11.128   7.198   2.452
  430DOPC   D2B 5152  11.121   7.156   2.752
  430DOPC   C3B 5153  11.122   7.219   3.051
  430DOPC   C4B 5154  11.078   7.190   3.352
  431DOPC   NC3 5155   3.615   9.522   1.552
  431DOPC   PO4 5156   3.631   9.535   1.852
  431DOPC   GL1 5157   3.599   9.517   2.152
  431DOPC   GL2 5158   3.477   9.626   2.152
  431DOPC   C1A 5159   3.650   9.549   2.452
  431DOPC   D2A 5160   3.600   9.480   2.752
  431DOPC   C3A 5161   3.639   9.548   3.051
  431DOPC   C4A 5162   3.648   9.523   3.352
  431DOPC   C1B 5163   3.396   9.836   2.452
  431DOPC   D2B 5164   3.402   9.780   2.752
  431DOPC   C3B 5165   3.414   9.855   3.051
  431DOPC   C4B 5166   3.441   9.806   3.352
  432DOPC   NC3 5167   4.413   8.940   1.552
  432DOPC   PO4 5168   4.446   8.976   1.852
  432DOPC   GL1 5169   4.470   8.957   2.152
  432DOPC   GL2 5170   4.277   8.874   2.152
  432DOPC   C1A 5171   4.451   8.981   2.452
  432DOPC   D2A 5172   4.499   8.919   2.752
  432DOPC   C3A 5173   4.495   8.885   3.051
  432DOPC   C4A 5174   4.413   8.934   3.352
  432DOPC   C1B 5175   4.058   8.840   2.452
  432DOPC   D2B 5176   4.102   8.849   2.752
  432DOPC   C3B 5177   4.056   8.893   3.051
  432DOPC   C4B 5178   4.151   8.813   3.352
  433DOPC   NC3 5179  17.151   2.649   1.552
  433DOPC   PO4 5180  17.226   2.648   1.852
  433DOPC   GL1 5181  17.184   2.704   2.152
  433DOPC   GL2 5182  17.372   2.725   2.152
  433DOPC   C1A 5183  17.223   2.696   2.452
  433DOPC   D2A 5184  17.166   2.677   2.752
  433DOPC   C3A 5185  17.166   2.675   3.051
  433DOPC   C4A 5186  17.199   2.624   3.352
  433DOPC   C1B 5187  17.542   2.788   2.452
  433DOPC   D2B 5188  17.486   2.849   2.752
  433DOPC   C3B 5189  17.546   2.792   3.051
  433DOPC   C4B 5190  17.500   2.807   3.352
  434DOPC   NC3 5191   6.466   2.574   1.552
  434DOPC   PO4 5192   6.469   2.658   1.852
  434DOPC   GL1 5193   6.456   2.648   2.152
  434DOPC   GL2 5194   6.624   2.741   2.152
  434DOPC   C1A 5195   6.503   2.590   2.452
  434DOPC   D2A 5196   6.472   2.658   2.752
  434DOPC   C3A 5197   6.436   2.641   3.051
  434DOPC   C4A 5198   6.420   2.639   3.352
  434DOPC   C1B 5199   6.719   2.849   2.452
  434DOPC   D2B 5200   6.728   2.848   2.752
  434DOPC   C3B 5201   6.725   2.885   3.051
  434DOPC   C4B 5202   6.750   2.901   3.352
  435DOPC   NC3 5203   6.692   9.812   1.552
  435DOPC   PO4 5204   6.680   9.820   1.852
  435DOPC   GL1 5205   6.663   9.832   2.152
  435DOPC   GL2 5206   6.594   9.714   2.152
  435DOPC   C1A 5207   6.637   9.824   2.452
  435DOPC   D2A 5208   6.605   9.860   2.752
  435DOPC   C3A 5209   6.636   9.815   3.051
  435DOPC   C4A 5210   6.610   9.858   3.352
  435DOPC   C1B 5211   6.500   9.508   2.452
  435DOPC   D2B 5212   6.475   9.491   2.752
  435DOPC   C3B 5213   6.570   9.525   3.051
  435DOPC   C4B 5214   6.481   9.468   3.352
  436DOPC   NC3 5215   8.297   4.345   1.552
  436DOPC   PO4 5216   8.273   4.335   1.852
  436DOPC   GL1 5217   8.302   4.314   2.152
  436DOPC   GL2 5218   8.138   4.248   2.152
  436DOPC   C1A 5219   8.352   4.347   2.452
  436DOPC   D2A 5220   8.269   4.265   2.752
  436DOPC   C3A 5221   8.273   4.325   3.051
  436DOPC   C4A 5222   8.291   4.348   3.352
  436DOPC   C1B 5223   7.956   4.231   2.452
  436DOPC   D2B 5224   7.999   4.213   2.752
  436DOPC   C3B 5225   7.967   4.257   3.051
  436DOPC   C4B 5226   7.950   4.243   3.352
  437DOPC   NC3 5227  13.661   9.758   1.552
  437DOPC   PO4 5228  13.645   9.783   1.852
  437DOPC   GL1 5229  13.646   9.766   2.152
  437DOPC   GL2 5230  13.541   9.647   2.152
  437DOPC   C1A 5231  13.668   9.723   2.452
  437DOPC   D2A 5232  13.705   9.782   2.752
  437DOPC   C3A 5233  13.645   9.780   3.051
  437DOPC   C4A 5234  13.687   9.732   3.352
  437DOPC   C1B 5235  13.398   9.577   2.452
  437DOPC   D2B 5236  13.379   9.533   2.752
  437DOPC   C3B 5237  13.361   9.540   3.051
  437DOPC   C4B 5238  13.356   9.549   3.352
  438DOPC   NC3 5239  10.287   6.496   1.552
  438DOPC   PO4 5240  10.232   6.482   1.852
  438DOPC   GL1 5241  10.300   6.520   2.152
  438DOPC   GL2 5242  10.464   6.628   2.152
  438DOPC   C1A 5243  10.241   6.543   2.452
  438DOPC   D2A 5244  10.280   6.545   2.752
  438DOPC   C3A 5245  10.298   6.499   3.051
  438DOPC   C4A 5246  10.274   6.476   3.352
  438DOPC   C1B 5247  10.586   6.646   2.452
  438DOPC   D2B 5248  10.627   6.617   2.752
  438DOPC   C3B 5249  10.584   6.688   3.051
  438DOPC   C4B 5250  10.580   6.688   3.352
  439DOPC   NC3 5251   0.650   4.254   1.552
  439DOPC   PO4 5252   0.649   4.273   1.852
  439DOPC   GL1 5253   0.596   4.265   2.152
  439DOPC   GL2 5254   0.409   4.270   2.152
  439DOPC   C1A 5255   0.582   4.251   2.452
  439DOPC   D2A 5256   0.593   4.303   2.752
  439DOPC   C3A 5257   0.657   4.221   3.051
  439DOPC   C4A 5258   0.639   4.243   3.352
  439DOPC   C1B 5259   0.208   4.328   2.452
  439DOPC   D2B 5260   0.298   4.310   2.752
  439DOPC   C3B 5261   0.208   4.287   3.051
  439DOPC   C4B 5262   0.208   4.313   3.352
  440DOPC   NC3 5263  11.374   3.528   1.552
  440DOPC   PO4 5264  11.418   3.476   1.852
  440DOPC   GL1 5265  11.353   3.478   2.152
  440DOPC   GL2 5266  11.224   3.511   2.152
  440DOPC   C1A 5267  11.354   3.492   2.452
  440DOPC   D2A 5268  11.356   3.500   2.752
  440DOPC   C3A 5269  11.431   3.542   3.051
  440DOPC   C4A 5270  11.405   3.467   3.352
  440DOPC   C1B 5271  11.070   3.552   2.452
  440DOPC   D2B 5272  11.072   3.574   2.752
  440DOPC   C3B 5273  11.070   3.512   3.051
  440DOPC   C4B 5274  11.039   3.509   3.352
  441DOPC   NC3 5275   7.490   6.705   1.552
  441DOPC   PO4 5276   7.462   6.688   1.852
  441DOPC   GL1 5277   7.505   6.703   2.152
  441DOPC   GL2 5278   7.379   6.613   2.152
  441DOPC   C1A 5279   7.468   6.658   2.452
  441DOPC   D2A 5280   7.495   6.682   2.752
  441DOPC   C3A 5281   7.465   6.725   3.051
  441DOPC   C4A 5282   7.499   6.745   3.352
  441DOPC   C1B 5283   7.179   6.458   2.452
  441DOPC   D2B 5284   7.211   6.507   2.752
  441DOPC   C3B 5285   7.212   6.447   3.051
  441DOPC   C4B 5286   7.183   6.471   3.352
  442DOPC   NC3 5287   5.229   4.311   1.552
  442DOPC   PO4 5288   5.196   4.308   1.852
  442DOPC   GL1 5289   5.257   4.279   2.152
  442DOPC   GL2 5290   5.098   4.242   2.152
  442DOPC   C1A 5291   5.225   4.250   2.452
  442DOPC   D2A 5292   5.213   4.315   2.752
  442DOPC   C3A 5293   5.200   4.324   3.051
  442DOPC   C4A 5294   5.223   4.260   3.352
  442DOPC   C1B 5295   4.841   4.230   2.452
  442DOPC   D2B 5296   4.881   4.239   2.752
  442DOPC   C3B 5297   4.883   4.300   3.051
  442DOPC   C4B 5298   4.919   4.303   3.352
  443DOPC   NC3 5299   8.734   7.284   1.552
  443DOPC   PO4 5300   8.740   7.227   1.852
  443DOPC   GL1 5301   8.793   7.228   2.152
  443DOPC   GL2 5302   8.908   7.402   2.152
  443DOPC   C1A 5303   8.776   7.258   2.452
  443DOPC   D2A 5304   8.800   7.251   2.752
  443DOPC   C3A 5305   8.788   7.221   3.051
  443DOPC   C4A 5306   8.807   7.290   3.352
  443DOPC   C1B 5307   9.005   7.429   2.452
  443DOPC   D2B 5308   8.996   7.492   2.752
  443DOPC   C3B 5309   9.058   7.470   3.051
  443DOPC   C4B 5310   9.070   7.517   3.352
  444DOPC   NC3 5311   3.479   8.304   1.552
  444DOPC   PO4 5312   3.530   8.269   1.852
  444DOPC   GL1 5313   3.522   8.315   2.152
  444DOPC   GL2 5314   3.558   8.086   2.152
  444DOPC   C1A 5315   3.482   8.279   2.452
  444DOPC   D2A 5316   3.521   8.346   2.752
  444DOPC   C3A 5317   3.498   8.316   3.051
  444DOPC   C4A 5318   3.497   8.259   3.352
  444DOPC   C1B 5319   3.530   7.920   2.452
  444DOPC   D2B 5320   3.503   7.995   2.752
  444DOPC   C3B 5321   3.541   7.946   3.051
  444DOPC   C4B 5322   3.524   7.951   3.352
  445DOPC   NC3 5323   5.146   5.954   1.552
  445DOPC   PO4 5324   5.086   5.994   1.852
  445DOPC   GL1 5325   5.176   5.995   2.152
  445DOPC   GL2 5326   5.003   5.854   2.152
  445DOPC   C1A 5327   5.176   5.981   2.452
  445DOPC   D2A 5328   5.085   5.960   2.752
  445DOPC   C3A 5329   5.114   5.983   3.051
  445DOPC   C4A 5330   5.123   5.989   3.352
  445DOPC   C1B 5331   4.957   5.679   2.452
  445DOPC   D2B 5332   4.994   5.699   2.752
  445DOPC   C3B 5333   5.006   5.610   3.051
  445DOPC   C4B 5334   4.964   5.668   3.352
  446DOPC   NC3 5335  14.955   3.630   1.552
  446DOPC   PO4 5336  15.032   3.709   1.852
  446DOPC   GL1 5337  15.013   3.705   2.152
  446DOPC   GL2 5338  15.054   3.484   2.152
  446DOPC   C1A 5339  15.008   3.629   2.452
  446DOPC   D2A 5340  15.003   3.671   2.752
  446DOPC   C3A 5341  15.004   3.690   3.051
  446DOPC   C4A 5342  14.950   3.725   3.352
  446DOPC   C1B 5343  15.127   3.318   2.452
  446DOPC   D2B 5344  15.135   3.386   2.752
  446DOPC   C3B 5345  15.086   3.366   3.051
  446DOPC   C4B 5346  15.066   3.378   3.352
  447DOPC   NC3 5347   8.898   9.451   1.552
  447DOPC   PO4 5348   8.846   9.492   1.852
  447DOPC   GL1 5349   8.871   9.454   2.152
  447DOPC   GL2 5350   8.921   9.701   2.152
  447DOPC   C1A 5351   8.891   9.441   2.452
  447DOPC   D2A 5352   8.872   9.506   2.752
  447DOPC   C3A 5353   8.893   9.540   3.051
  447DOPC   C4A 5354   8.854   9.463   3.352
  447DOPC   C1B 5355   8.936   9.824   2.452
  447DOPC   D2B 5356   8.970   9.820   2.752
  447DOPC   C3B 5357   8.971   9.795   3.051
  447DOPC   C4B 5358   8.981   9.836   3.352
  448DOPC   NC3 5359   1.858   2.683   1.552
  448DOPC   PO4 5360   1.824   2.697   1.852
  448DOPC   GL1 5361   1.792   2.637   2.152
  448DOPC   GL2 5362   1.937   2.760   2.152
  448DOPC   C1A 5363   1.862   2.683   2.452
  448DOPC   D2A 5364   1.787   2.601   2.752
  448DOPC   C3A 5365   1.837   2.598   3.051
  448DOPC   C4A 5366   1.845   2.626   3.352
  448DOPC   C1B 5367   2.114   2.852   2.452
  448DOPC   D2B 5368   2.134   2.802   2.752
  448DOPC   C3B 5369   2.095   2.866   3.051
  448DOPC   C4B 5370   2.109   2.848   3.352
  449DOPC   NC3 5371   2.049   9.458   1.552
  449DOPC   PO4 5372   2.069   9.465   1.852
  449DOPC   GL1 5373   2.074   9.502   2.152
  449DOPC   GL2 5374   1.975   9.669   2.152
  449DOPC   C1A 5375   2.106   9.476   2.452
  449DOPC   D2A 5376   2.041   9.481   2.752
  449DOPC   C3A 5377   2.011   9.469   3.051
  449DOPC   C4A 5378   2.089   9.516   3.352
  449DOPC   C1B 5379   1.933   9.873   2.452
  449DOPC   D2B 5380   1.843   9.812   2.752
  449DOPC   C3B 5381   1.845   9.779   3.051
  449DOPC   C4B 5382   1.868   9.849   3.352
  450DOPC   NC3 5383   5.883   5.235   1.552
  450DOPC   PO4 5384   5.846   5.208   1.852
  450DOPC   GL1 5385   5.880   5.248   2.152
  450DOPC   GL2 5386   5.805   5.005   2.152
  450DOPC   C1A 5387   5.854   5.194   2.452
  450DOPC   D2A 5388   5.877   5.237   2.752
  450DOPC   C3A 5389   5.862   5.252   3.051
  450DOPC   C4A 5390   5.850   5.241   3.352
  450DOPC   C1B 5391   5.724   4.924   2.452
  450DOPC   D2B 5392   5.722   4.926   2.752
  450DOPC   C3B 5393   5.743   4.910   3.051
  450DOPC   C4B 5394   5.725   4.920   3.352
  451DOPC   NC3 5395  13.338   8.902   1.552
  451DOPC   PO4 5396  13.287   8.899   1.852
  451DOPC   GL1 5397  13.312   8.918   2.152
  451DOPC   GL2 5398  13.541   8.922   2.152
  451DOPC   C1A 5399  13.353   8.904   2.452
  451DOPC   D2A 5400  13.347   8.917   2.752
  451DOPC   C3A 5401  13.335   8.876   3.051
  451DOPC   C4A 5402  13.367   8.948   3.352
  451DOPC   C1B 5403  13.655   8.885   2.452
  451DOPC   D2B 5404  13.675   8.858   2.752
  451DOPC   C3B 5405  13.710   8.934   3.051
  451DOPC   C4B 5406  13.737   8.938   3.352
  452DOPC   NC3 5407  12.106   1.377   1.552
  452DOPC   PO4 5408  12.057   1.283   1.852
  452DOPC   GL1 5409  12.112   1.313   2.152
  452DOPC   GL2 5410  12.005   1.193   2.152
  452DOPC   C1A 5411  12.136   1.369   2.452
  452DOPC   D2A 5412  12.076   1.379   2.752
  452DOPC   C3A 5413  12.062   1.368   3.051
  452DOPC   C4A 5414  12.063   1.372   3.352
  452DOPC   C1B 5415  11.835   1.095   2.452
  452DOPC   D2B 5416  11.825   1.103   2.752
  452DOPC   C3B 5417  11.836   1.108   3.051
  452DOPC   C4B 5418  11.869   1.119   3.352
  453DOPC   NC3 5419  19.504   8.159   1.552
  453DOPC   PO4 5420  19.488   8.178   1.852
  453DOPC   GL1 5421  19.472   8.150   2.152
  453DOPC   GL2 5422  19.668   8.125   2.152
  453DOPC   C1A 5423  19.532   8.092   2.452
  453DOPC   D2A 5424  19.483   8.094   2.752
  453DOPC   C3A 5425  19.461   8.176   3.051
  453DOPC   C4A 5426  19.473   8.134   3.352
  453DOPC   C1B 5427  19.892   8.140   2.452
  453DOPC   D2B 5428  19.841   8.075   2.752
  453DOPC   C3B 5429  19.819   8.123   3.051
  453DOPC   C4B 5430  19.855   8.085   3.352
  454DOPC   NC3 5431   1.413   5.082   1.552
  454DOPC   PO4 5432   1.336   5.062   1.852
  454DOPC   GL1 5433   1.386   5.046   2.152
  454DOPC   GL2 5434   1.216   5.004   2.152
  454DOPC   C1A 5435   1.379   4.994   2.452
  454DOPC   D2A 5436   1.334   5.057   2.752
  454DOPC   C3A 5437   1.406   4.991   3.051
  454DOPC   C4A 5438   1.335   4.992   3.352
  454DOPC   C1B 5439   1.001   5.048   2.452
  454DOPC   D2B 5440   1.037   5.035   2.752
  454DOPC   C3B 5441   1.016   5.020   3.051
  454DOPC   C4B 5442   1.014   5.050   3.352
  455DOPC   NC3 5443  10.472   7.511   1.552
  455DOPC   PO4 5444  10.441   7.493   1.852
  455DOPC   GL1 5445  10.481   7.523   2.152
  455DOPC   GL2 5446  10.416   7.401   2.152
  455DOPC   C1A 5447  10.435   7.493   2.452
  455DOPC   D2A 5448  10.480   7.528   2.752
  455DOPC   C3A 5449  10.465   7.504   3.051
  455DOPC   C4A 5450  10.477   7.546   3.352
  455DOPC   C1B 5451  10.406   7.175   2.452
  455DOPC   D2B 5452  10.439   7.169   2.752
  455DOPC   C3B 5453  10.355   7.138   3.051
  455DOPC   C4B 5454  10.419   7.144   3.352
  456DOPC   NC3 5455  12.590   3.379   1.552
  456DOPC   PO4 5456  12.664   3.342   1.852
  456DOPC   GL1 5457  12.623   3.407   2.152
  456DOPC   GL2 5458  12.754   3.521   2.152
  456DOPC   C1A 5459  12.608   3.355   2.452
  456DOPC   D2A 5460  12.589   3.417   2.752
  456DOPC   C3A 5461  12.640   3.367   3.051
  456DOPC   C4A 5462  12.652   3.420   3.352
  456DOPC   C1B 5463  12.819   3.595   2.452
  456DOPC   D2B 5464  12.834   3.603   2.752
  456DOPC   C3B 5465  12.883   3.621   3.051
  456DOPC   C4B 5466  12.884   3.625   3.352
  457DOPC   NC3 5467  12.147   9.539   1.552
  457DOPC   PO4 5468  12.122   9.599   1.852
  457DOPC   GL1 5469  12.169   9.591   2.152
  457DOPC   GL2 5470  12.020   9.617   2.152
  457DOPC   C1A 5471  12.131   9.592   2.452
  457DOPC   D2A 5472  12.175   9.590   2.752
  457DOPC   C3A 5473  12.097   9.557   3.051
  457DOPC   C4A 5474  12.079   9.536   3.352
  457DOPC   C1B 5475  11.836   9.771   2.452
  457DOPC   D2B 5476  11.802   9.801   2.752
  457DOPC   C3B 5477  11.772   9.746   3.051
  457DOPC   C4B 5478  11.804   9.727   3.352
  458DOPC   NC3 5479   2.914   6.508   1.552
  458DOPC   PO4 5480   2.873   6.501   1.852
  458DOPC   GL1 5481   2.916   6.447   2.152
  458DOPC   GL2 5482   2.712   6.638   2.152
  458DOPC   C1A 5483   2.828   6.497   2.452
  458DOPC   D2A 5484   2.833   6.509   2.752
  458DOPC   C3A 5485   2.916   6.497   3.051
  458DOPC   C4A 5486   2.845   6.517   3.352
  458DOPC   C1B 5487   2.628   6.684   2.452
  458DOPC   D2B 5488   2.575   6.732   2.752
  458DOPC   C3B 5489   2.596   6.677   3.051
  458DOPC   C4B 5490   2.651   6.695   3.352
  459DOPC   NC3 5491  14.185   4.449   1.552
  459DOPC   PO4 5492  14.182   4.422   1.852
  459DOPC   GL1 5493  14.234   4.459   2.152
  459DOPC   GL2 5494  14.293   4.278   2.152
  459DOPC   C1A 5495  14.193   4.421   2.452
  459DOPC   D2A 5496  14.178   4.395   2.752
  459DOPC   C3A 5497  14.225   4.412   3.051
  459DOPC   C4A 5498  14.216   4.462   3.352
  459DOPC   C1B 5499  14.417   4.167   2.452
  459DOPC   D2B 5500  14.383   4.155   2.752
  459DOPC   C3B 5501  14.330   4.087   3.051
  459DOPC   C4B 5502  14.366   4.135   3.352
  460DOPC   NC3 5503  12.128   5.752   1.552
  460DOPC   PO4 5504  12.179   5.762   1.852
  460DOPC   GL1 5505  12.114   5.763   2.152
  460DOPC   GL2 5506  11.956   5.815   2.152
  460DOPC   C1A 5507  12.139   5.704   2.452
  460DOPC   D2A 5508  12.109   5.740   2.752
  460DOPC   C3A 5509  12.124   5.736   3.051
  460DOPC   C4A 5510  12.145   5.760   3.352
  460DOPC   C1B 5511  11.769   5.851   2.452
  460DOPC   D2B 5512  11.843   5.858   2.752
  460DOPC   C3B 5513  11.772   5.910   3.051
  460DOPC   C4B 5514  11.848   5.846   3.352
  461DOPC   NC3 5515   9.042   5.851   1.552
  461DOPC   PO4 5516   9.051   5.913   1.852
  461DOPC   GL1 5517   9.100   5.908   2.152
  461DOPC   GL2 5518   8.916   5.787   2.152
  461DOPC   C1A 5519   9.056   5.871   2.452
  461DOPC   D2A 5520   9.117   5.891   2.752
  461DOPC   C3A 5521   9.027   5.901   3.051
  461DOPC   C4A 5522   9.058   5.882   3.352
  461DOPC   C1B 5523   8.732   5.761   2.452
  461DOPC   D2B 5524   8.759   5.806   2.752
  461DOPC   C3B 5525   8.763   5.746   3.051
  461DOPC   C4B 5526   8.740   5.750   3.352
  462DOPC   NC3 5527  17.989   2.051   1.552
  462DOPC   PO4 5528  17.999   2.065   1.852
  462DOPC   GL1 5529  17.971   2.040   2.152
  462DOPC   GL2 5530  18.127   1.951   2.152
  462DOPC   C1A 5531  17.964   2.022   2.452
  462DOPC   D2A 5532  18.000   2.023   2.752
  462DOPC   C3A 5533  17.998   2.052   3.051
  462DOPC   C4A 5534  18.001   2.030   3.352
  462DOPC   C1B 5535  18.260   1.941   2.452
  462DOPC   D2B 5536  18.280   1.919   2.752
  462DOPC   C3B 5537  18.251   1.917   3.051
  462DOPC   C4B 5538  18.251   1.898   3.352
  463DOPC   NC3 5539   5.683   0.547   1.552
  463DOPC   PO4 5540   5.750   0.633   1.852
  463DOPC   GL1 5541   5.724   0.629   2.152
  463DOPC   GL2 5542   5.773   0.482   2.152
  463DOPC   C1A 5543   5.748   0.589   2.452
  463DOPC   D2A 5544   5.702   0.594   2.752
  463DOPC   C3A 5545   5.735   0.580   3.051
  463DOPC   C4A 5546   5.741   0.569   3.352
  463DOPC   C1B 5547   5.916   0.293   2.452
  463DOPC   D2B 5548   5.890   0.325   2.752
  463DOPC   C3B 5549   5.866   0.319   3.051
  463DOPC   C4B 5550   5.875   0.281   3.352
  464DOPC   NC3 5551  11.768   2.021   1.552
  464DOPC   PO4 5552  11.768   1.994   1.852
  464DOPC   GL1 5553  11.807   2.072   2.152
  464DOPC   GL2 5554  11.971   1.986   2.152
  464DOPC   C1A 5555  11.763   2.051   2.452
  464DOPC   D2A 5556  11.831   1.992   2.752
  464DOPC   C3A 5557  11.798   1.997   3.051
  464DOPC   C4A 5558  11.798   1.988   3.352
  464DOPC   C1B 5559  12.174   1.893   2.452
  464DOPC   D2B 5560  12.135   1.915   2.752
  464DOPC   C3B 5561  12.110   1.908   3.051
  464DOPC   C4B 5562  12.101   1.877   3.352
  465DOPC   NC3 5563   8.790   0.267   1.552
  465DOPC   PO4 5564   8.802   0.285   1.852
  465DOPC   GL1 5565   8.748   0.263   2.152
  465DOPC   GL2 5566   8.874   0.469   2.152
  465DOPC   C1A 5567   8.769   0.277   2.452
  465DOPC   D2A 5568   8.784   0.339   2.752
  465DOPC   C3A 5569   8.810   0.324   3.051
  465DOPC   C4A 5570   8.788   0.308   3.352
  465DOPC   C1B 5571   8.992   0.586   2.452
  465DOPC   D2B 5572   9.007   0.603   2.752
  465DOPC   C3B 5573   8.962   0.541   3.051
  465DOPC   C4B 5574   9.014   0.589   3.352
  466DOPC   NC3 5575  18.321   7.245   1.552
  466DOPC   PO4 5576  18.333   7.314   1.852
  466DOPC   GL1 5577  18.330   7.242   2.152
  466DOPC   GL2 5578  18.174   7.370   2.152
  466DOPC   C1A 5579  18.291   7.321   2.452
  466DOPC   D2A 5580  18.250   7.317   2.752
  466DOPC   C3A 5581  18.272   7.283   3.051
  466DOPC   C4A 5582  18.280   7.247   3.352
  466DOPC   C1B 5583  18.014   7.469   2.452
  466DOPC   D2B 5584  17.976   7.483   2.752
  466DOPC   C3B 5585  18.000   7.475   3.051
  466DOPC   C4B 5586  18.008   7.454   3.352
  467DOPC   NC3 5587  10.491   4.460   1.552
  467DOPC   PO4 5588  10.527   4.430   1.852
  467DOPC   GL1 5589  10.554   4.393   2.152
  467DOPC   GL2 5590  10.445   4.256   2.152
  467DOPC   C1A 5591  10.490   4.472   2.452
  467DOPC   D2A 5592  10.530   4.456   2.752
  467DOPC   C3A 5593  10.505   4.451   3.051
  467DOPC   C4A 5594  10.563   4.449   3.352
  467DOPC   C1B 5595  10.298   4.157   2.452
  467DOPC   D2B 5596  10.381   4.162   2.752
  467DOPC   C3B 5597  10.347   4.160   3.051
  467DOPC   C4B 5598  10.298   4.136   3.352
  468DOPC   NC3 5599   4.932   0.345   1.552
  468DOPC   PO4 5600   4.930   0.334   1.852
  468DOPC   GL1 5601   4.894   0.294   2.152
  468DOPC   GL2 5602   5.030   0.438   2.152
  468DOPC   C1A 5603   4.890   0.255   2.452
  468DOPC   D2A 5604   4.955   0.299   2.752
  468DOPC   C3A 5605   4.900   0.327   3.051
  468DOPC   C4A 5606   4.919   0.318   3.352
  468DOPC   C1B 5607   5.155   0.608   2.452
  468DOPC   D2B 5608   5.162   0.603   2.752
  468DOPC   C3B 5609   5.202   0.593   3.051
  468DOPC   C4B 5610   5.139   0.601   3.352
  469DOPC   NC3 5611  15.990   5.768   1.552
  469DOPC   PO4 5612  16.004   5.783   1.852
  469DOPC   GL1 5613  15.960   5.771   2.152
  469DOPC   GL2 5614  15.842   5.796   2.152
  469DOPC   C1A 5615  15.996   5.827   2.452
  469DOPC   D2A 5616  15.966   5.752   2.752
  469DOPC   C3A 5617  15.954   5.822   3.051
  469DOPC   C4A 5618  16.029   5.846   3.352
  469DOPC   C1B 5619  15.626   5.804   2.452
  469DOPC   D2B 5620  15.598   5.852   2.752
  469DOPC   C3B 5621  15.631   5.853   3.051
  469DOPC   C4B 5622  15.595   5.869   3.352
  470DOPC   NC3 5623   0.372   1.087   1.552
  470DOPC   PO4 5624   0.355   1.031   1.852
  470DOPC   GL1 5625   0.287   1.096   2.152
  470DOPC   GL2 5626   0.469   1.176   2.152
  470DOPC   C1A 5627   0.318   1.056   2.452
  470DOPC   D2A 5628   0.313   1.094   2.752
  470DOPC   C3A 5629   0.367   1.014   3.051
  470DOPC   C4A 5630   0.359   1.031   3.352
  470DOPC   C1B 5631   0.538   1.372   2.452
  470DOPC   D2B 5632   0.493   1.341   2.752
  470DOPC   C3B 5633   0.527   1.345   3.051
  470DOPC   C4B 5634   0.545   1.340   3.352
  471DOPC   NC3 5635   4.379   3.605   1.552
  471DOPC   PO4 5636   4.396   3.682   1.852
  471DOPC   GL1 5637   4.416   3.680   2.152
  471DOPC   GL2 5638   4.249   3.526   2.152
  471DOPC   C1A 5639   4.377   3.603   2.452
  471DOPC   D2A 5640   4.432   3.657   2.752
  471DOPC   C3A 5641   4.440   3.642   3.051
  471DOPC   C4A 5642   4.426   3.597   3.352
  471DOPC   C1B 5643   4.125   3.399   2.452
  471DOPC   D2B 5644   4.189   3.361   2.752
  471DOPC   C3B 5645   4.153   3.352   3.051
  471DOPC   C4B 5646   4.130   3.392   3.352
  472DOPC   NC3 5647  19.009   2.154   1.552
  472DOPC   PO4 5648  19.028   2.107   1.852
  472DOPC   GL1 5649  19.022   2.132   2.152
  472DOPC   GL2 5650  18.916   1.974   2.152
  472DOPC   C1A 5651  18.962   2.144   2.452
  472DOPC   D2A 5652  18.992   2.148   2.752
  472DOPC   C3A 5653  19.005   2.160   3.051
  472DOPC   C4A 5654  19.019   2.141   3.352
  472DOPC   C1B 5655  18.803   1.862   2.452
  472DOPC   D2B 5656  18.760   1.829   2.752
  472DOPC   C3B 5657  18.750   1.857   3.051
  472DOPC   C4B 5658  18.757   1.793   3.352
  473DOPC   NC3 5659  11.039   8.757   1.552
  473DOPC   PO4 5660  11.101   8.716   1.852
  473DOPC   GL1 5661  11.098   8.808   2.152
  473DOPC   GL2 5662  11.228   8.900   2.152
  473DOPC   C1A 5663  11.045   8.769   2.452
  473DOPC   D2A 5664  11.133   8.781   2.752
  473DOPC   C3A 5665  11.089   8.755   3.051
  473DOPC   C4A 5666  11.126   8.771   3.352
  473DOPC   C1B 5667  11.272   8.995   2.452
  473DOPC   D2B 5668  11.363   9.033   2.752
  473DOPC   C3B 5669  11.303   9.051   3.051
  473DOPC   C4B 5670  11.313   9.062   3.352
  474DOPC   NC3 5671   6.752   1.988   1.552
  474DOPC   PO4 5672   6.717   1.998   1.852
  474DOPC   GL1 5673   6.746   2.006   2.152
  474DOPC   GL2 5674   6.633   1.940   2.152
  474DOPC   C1A 5675   6.731   1.937   2.452
  474DOPC   D2A 5676   6.772   1.963   2.752
  474DOPC   C3A 5677   6.718   1.980   3.051
  474DOPC   C4A 5678   6.815   1.951   3.352
  474DOPC   C1B 5679   6.367   1.970   2.452
  474DOPC   D2B 5680   6.392   1.976   2.752
  474DOPC   C3B 5681   6.435   1.943   3.051
  474DOPC   C4B 5682   6.392   1.992   3.352
  475DOPC   NC3 5683   4.267   4.477   1.552
  475DOPC   PO4 5684   4.170   4.483   1.852
  475DOPC   GL1 5685   4.203   4.454   2.152
  475DOPC   GL2 5686   4.285   4.281   2.152
  475DOPC   C1A 5687   4.199   4.423   2.452
  475DOPC   D2A 5688   4.243   4.478   2.752
  475DOPC   C3A 5689   4.179   4.484   3.051
  475DOPC   C4A 5690   4.219   4.449   3.352
  475DOPC   C1B 5691   4.341   4.104   2.452
  475DOPC   D2B 5692   4.349   4.132   2.752
  475DOPC   C3B 5693   4.304   4.118   3.051
  475DOPC   C4B 5694   4.389   4.152   3.352
  476DOPC   NC3 5695  13.647   8.152   1.552
  476DOPC   PO4 5696  13.678   8.163   1.852
  476DOPC   GL1 5697  13.718   8.188   2.152
  476DOPC   GL2 5698  13.525   8.138   2.152
  476DOPC   C1A 5699  13.724   8.176   2.452
  476DOPC   D2A 5700  13.667   8.191   2.752
  476DOPC   C3A 5701  13.685   8.222   3.051
  476DOPC   C4A 5702  13.657   8.147   3.352
  476DOPC   C1B 5703  13.385   8.039   2.452
  476DOPC   D2B 5704  13.317   8.042   2.752
  476DOPC   C3B 5705  13.366   8.080   3.051
  476DOPC   C4B 5706  13.337   8.102   3.352
  477DOPC   NC3 5707   0.445   9.101   1.552
  477DOPC   PO4 5708   0.430   9.059   1.852
  477DOPC   GL1 5709   0.458   9.096   2.152
  477DOPC   GL2 5710   0.466   8.920   2.152
  477DOPC   C1A 5711   0.449   9.123   2.452
  477DOPC   D2A 5712   0.408   9.092   2.752
  477DOPC   C3A 5713   0.451   9.054   3.051
  477DOPC   C4A 5714   0.374   9.103   3.352
  477DOPC   C1B 5715   0.470   8.678   2.452
  477DOPC   D2B 5716   0.457   8.692   2.752
  477DOPC   C3B 5717   0.429   8.724   3.051
  477DOPC   C4B 5718   0.487   8.673   3.352
  478DOPC   NC3 5719  16.733   9.639   1.552
  478DOPC   PO4 5720  16.721   9.667   1.852
  478DOPC   GL1 5721  16.723   9.630   2.152
  478DOPC   GL2 5722  16.594   9.689   2.152
  478DOPC   C1A 5723  16.790   9.624   2.452
  478DOPC   D2A 5724  16.747   9.593   2.752
  478DOPC   C3A 5725  16.722   9.619   3.051
  478DOPC   C4A 5726  16.734   9.599   3.352
  478DOPC   C1B 5727  16.444   9.718   2.452
  478DOPC   D2B 5728  16.426   9.674   2.752
  478DOPC   C3B 5729  16.428   9.666   3.051
  478DOPC   C4B 5730  16.379   9.705   3.352
  479DOPC   NC3 5731   9.876   6.675   1.552
  479DOPC   PO4 5732   9.875   6.706   1.852
  479DOPC   GL1 5733   9.815   6.655   2.152
  479DOPC   GL2 5734   9.620   6.603   2.152
  479DOPC   C1A 5735   9.779   6.682   2.452
  479DOPC   D2A 5736   9.846   6.662   2.752
  479DOPC   C3A 5737   9.779   6.632   3.051
  479DOPC   C4A 5738   9.810   6.653   3.352
  479DOPC   C1B 5739   9.521   6.478   2.452
  479DOPC   D2B 5740   9.505   6.480   2.752
  479DOPC   C3B 5741   9.481   6.530   3.051
  479DOPC   C4B 5742   9.520   6.501   3.352
  480DOPC   NC3 5743  17.946   1.185   1.552
  480DOPC   PO4 5744  17.919   1.260   1.852
  480DOPC   GL1 5745  17.980   1.196   2.152
  480DOPC   GL2 5746  18.091   1.181   2.152
  480DOPC   C1A 5747  17.948   1.236   2.452
  480DOPC   D2A 5748  17.956   1.228   2.752
  480DOPC   C3A 5749  17.989   1.218   3.051
  480DOPC   C4A 5750  17.905   1.186   3.352
  480DOPC   C1B 5751  18.301   1.153   2.452
  480DOPC   D2B 5752  18.334   1.141   2.752
  480DOPC   C3B 5753  18.354   1.128   3.051
  480DOPC   C4B 5754  18.336   1.148   3.352
  481DOPC   NC3 5755  10.556   9.778   1.552
  481DOPC   PO4 5756  10.478   9.797   1.852
  481DOPC   GL1 5757  10.546   9.855   2.152
  481DOPC   GL2 5758  10.417   9.641   2.152
  481DOPC   C1A 5759  10.480   9.847   2.452
  481DOPC   D2A 5760  10.491   9.849   2.752
  481DOPC   C3A 5761  10.539   9.856   3.051
  481DOPC   C4A 5762  10.562   9.859   3.352
  481DOPC   C1B 5763  10.348   9.480   2.452
  481DOPC   D2B 5764  10.314   9.547   2.752
  481DOPC   C3B 5765  10.392   9.504   3.051
  481DOPC   C4B 5766  10.329   9.519   3.352
  482DOPC   NC3 5767   8.109   8.689   1.552
  482DOPC   PO4 5768   8.156   8.758   1.852
  482DOPC   GL1 5769   8.167   8.678   2.152
  482DOPC   GL2 5770   8.137   8.874   2.152
  482DOPC   C1A 5771   8.138   8.746   2.452
  482DOPC   D2A 5772   8.135   8.744   2.752
  482DOPC   C3A 5773   8.118   8.734   3.051
  482DOPC   C4A 5774   8.135   8.697   3.352
  482DOPC   C1B 5775   8.094   9.104   2.452
  482DOPC   D2B 5776   8.140   9.055   2.752
  482DOPC   C3B 5777   8.097   9.050   3.051
  482DOPC   C4B 5778   8.134   9.119   3.352
  483DOPC   NC3 5779   0.993   7.477   1.552
  483DOPC   PO4 5780   1.051   7.398   1.852
  483DOPC   GL1 5781   1.012   7.400   2.152
  483DOPC   GL2 5782   1.219   7.346   2.152
  483DOPC   C1A 5783   1.058   7.458   2.452
  483DOPC   D2A 5784   1.038   7.449   2.752
  483DOPC   C3A 5785   0.991   7.382   3.051
  483DOPC   C4A 5786   1.034   7.475   3.352
  483DOPC   C1B 5787   1.412   7.273   2.452
  483DOPC   D2B 5788   1.400   7.307   2.752
  483DOPC   C3B 5789   1.333   7.325   3.051
  483DOPC   C4B 5790   1.333   7.253   3.352
  484DOPC   NC3 5791   4.336   5.231   1.552
  484DOPC   PO4 5792   4.392   5.230   1.852
  484DOPC   GL1 5793   4.383   5.197   2.152
  484DOPC   GL2 5794   4.317   5.046   2.152
  484DOPC   C1A 5795   4.365   5.245   2.452
  484DOPC   D2A 5796   4.333   5.238   2.752
  484DOPC   C3A 5797   4.340   5.219   3.051
  484DOPC   C4A 5798   4.348   5.215   3.352
  484DOPC   C1B 5799   4.198   4.943   2.452
  484DOPC   D2B 5800   4.235   4.934   2.752
  484DOPC   C3B 5801   4.176   4.921   3.051
  484DOPC   C4B 5802   4.191   4.898   3.352
  485DOPC   NC3 5803  11.060   1.885   1.552
  485DOPC   PO4 5804  11.066   1.899   1.852
  485DOPC   GL1 5805  11.024   1.944   2.152
  485DOPC   GL2 5806  11.231   1.969   2.152
  485DOPC   C1A 5807  11.064   1.945   2.452
  485DOPC   D2A 5808  11.017   1.943   2.752
  485DOPC   C3A 5809  10.992   1.854   3.051
  485DOPC   C4A 5810  11.018   1.876   3.352
  485DOPC   C1B 5811  11.364   2.066   2.452
  485DOPC   D2B 5812  11.397   2.041   2.752
  485DOPC   C3B 5813  11.353   2.049   3.051
  485DOPC   C4B 5814  11.393   2.048   3.352
  486DOPC   NC3 5815  14.885   6.489   1.552
  486DOPC   PO4 5816  14.941   6.498   1.852
  486DOPC   GL1 5817  14.954   6.439   2.152
  486DOPC   GL2 5818  15.019   6.541   2.152
  486DOPC   C1A 5819  14.897   6.521   2.452
  486DOPC   D2A 5820  14.923   6.455   2.752
  486DOPC   C3A 5821  14.928   6.445   3.051
  486DOPC   C4A 5822  14.886   6.517   3.352
  486DOPC   C1B 5823  15.160   6.673   2.452
  486DOPC   D2B 5824  15.149   6.683   2.752
  486DOPC   C3B 5825  15.220   6.734   3.051
  486DOPC   C4B 5826  15.151   6.676   3.352
  487DOPC   NC3 5827   3.668   7.498   1.552
  487DOPC   PO4 5828   3.667   7.490   1.852
  487DOPC   GL1 5829   3.673   7.530   2.152
  487DOPC   GL2 5830   3.465   7.394   2.152
  487DOPC   C1A 5831   3.613   7.471   2.452
  487DOPC   D2A 5832   3.645   7.478   2.752
  487DOPC   C3A 5833   3.622   7.434   3.051
  487DOPC   C4A 5834   3.616   7.441   3.352
  487DOPC   C1B 5835   3.403   7.220   2.452
  487DOPC   D2B 5836   3.412   7.262   2.752
  487DOPC   C3B 5837   3.402   7.195   3.051
  487DOPC   C4B 5838   3.431   7.240   3.352
  488DOPC   NC3 5839  17.507   6.684   1.552
  488DOPC   PO4 5840  17.472   6.722   1.852
  488DOPC   GL1 5841  17.519   6.758   2.152
  488DOPC   GL2 5842  17.335   6.609   2.152
  488DOPC   C1A 5843  17.534   6.678   2.452
  488DOPC   D2A 5844  17.443   6.753   2.752
  488DOPC   C3A 5845  17.495   6.752   3.051
  488DOPC   C4A 5846  17.451   6.696   3.352
  488DOPC   C1B 5847  17.226   6.452   2.452
  488DOPC   D2B 5848  17.249   6.424   2.752
  488DOPC   C3B 5849  17.190   6.489   3.051
  488DOPC   C4B 5850  17.249   6.466   3.352
  489DOPC   NC3 5851   9.833   8.105   1.552
  489DOPC   PO4 5852   9.811   8.105   1.852
  489DOPC   GL1 5853   9.860   8.144   2.152
  489DOPC   GL2 5854   9.651   8.147   2.152
  489DOPC   C1A 5855   9.823   8.089   2.452
  489DOPC   D2A 5856   9.862   8.079   2.752
  489DOPC   C3A 5857   9.866   8.132   3.051
  489DOPC   C4A 5858   9.822   8.154   3.352
  489DOPC   C1B 5859   9.503   8.145   2.452
  489DOPC   D2B 5860   9.485   8.112   2.752
  489DOPC   C3B 5861   9.534   8.136   3.051
  489DOPC   C4B 5862   9.520   8.151   3.352
  490DOPC   NC3 5863  18.972   9.530   1.552
  490DOPC   PO4 5864  18.939   9.483   1.852
  490DOPC   GL1 5865  18.982   9.546   2.152
  490DOPC   GL2 5866  18.865   9.641   2.152
  490DOPC   C1A 5867  18.986   9.456   2.452
  490DOPC   D2A 5868  18.966   9.509   2.752
  490DOPC   C3A 5869  18.937   9.448   3.051
  490DOPC   C4A 5870  18.950   9.494   3.352
  490DOPC   C1B 5871  18.794   9.818   2.452
  490DOPC   D2B 5872  18.800   9.793   2.752
  490DOPC   C3B 5873  18.838   9.840   3.051
  490DOPC   C4B 5874  18.882   9.881   3.352
  491DOPC   NC3 5875   7.480   9.827   1.552
  491DOPC   PO4 5876   7.440   9.789   1.852
  491DOPC   GL1 5877   7.451   9.844   2.152
  491DOPC   GL2 5878   7.346   9.657   2.152
  491DOPC   C1A 5879   7.403   9.813   2.452
  491DOPC   D2A 5880   7.438   9.854   2.752
  491DOPC   C3A 5881   7.478   9.831   3.051
  491DOPC   C4A 5882   7.415   9.850   3.352
  491DOPC   C1B 5883   7.235   9.561   2.452
  491DOPC   D2B 5884   7.291   9.498   2.752
  491DOPC   C3B 5885   7.217   9.556   3.051
  491DOPC   C4B 5886   7.271   9.560   3.352
  492DOPC   NC3 5887   0.287   2.724   1.552
  492DOPC   PO4 5888   0.224   2.794   1.852
  492DOPC   GL1 5889   0.286   2.797   2.152
  492DOPC   GL2 5890   0.475   2.729   2.152
  492DOPC   C1A 5891   0.287   2.803   2.452
  492DOPC   D2A 5892   0.241   2.742   2.752
  492DOPC   C3A 5893   0.240   2.804   3.051
  492DOPC   C4A 5894   0.257   2.801   3.352
  492DOPC   C1B 5895   0.624   2.729   2.452
  492DOPC   D2B 5896   0.647   2.681   2.752
  492DOPC   C3B 5897   0.618   2.731   3.051
  492DOPC   C4B 5898   0.575   2.699   3.352
  493DOPC   NC3 5899  10.382   4.847   1.552
  493DOPC   PO4 5900  10.380   4.880   1.852
  493DOPC   GL1 5901  10.343   4.918   2.152
  493DOPC   GL2 5902  10.447   5.056   2.152
  493DOPC   C1A 5903  10.375   4.908   2.452
  493DOPC   D2A 5904  10.318   4.907   2.752
  493DOPC   C3A 5905  10.334   4.839   3.051
  493DOPC   C4A 5906  10.335   4.836   3.352
  493DOPC   C1B 5907  10.534   5.202   2.452
  493DOPC   D2B 5908  10.488   5.194   2.752
  493DOPC   C3B 5909  10.497   5.259   3.051
  493DOPC   C4B 5910  10.501   5.202   3.352
  494DOPC   NC3 5911  17.578   4.362   1.552
  494DOPC   PO4 5912  17.495   4.329   1.852
  494DOPC   GL1 5913  17.491   4.340   2.152
  494DOPC   GL2 5914  17.335   4.289   2.152
  494DOPC   C1A 5915  17.549   4.343   2.452
  494DOPC   D2A 5916  17.548   4.279   2.752
  494DOPC   C3A 5917  17.526   4.346   3.051
  494DOPC   C4A 5918  17.549   4.357   3.352
  494DOPC   C1B 5919  17.165   4.289   2.452
  494DOPC   D2B 5920  17.216   4.236   2.752
  494DOPC   C3B 5921  17.158   4.230   3.051
  494DOPC   C4B 5922  17.198   4.287   3.352
  495DOPC   NC3 5923  18.201   0.584   1.552
  495DOPC   PO4 5924  18.134   0.577   1.852
  495DOPC   GL1 5925  18.222   0.588   2.152
  495DOPC   GL2 5926  18.163   0.450   2.152
  495DOPC   C1A 5927  18.166   0.632   2.452
  495DOPC   D2A 5928  18.167   0.609   2.752
  495DOPC   C3A 5929  18.135   0.588   3.051
  495DOPC   C4A 5930  18.189   0.632   3.352
  495DOPC   C1B 5931  18.106   0.247   2.452
  495DOPC   D2B 5932  18.081   0.311   2.752
  495DOPC   C3B 5933  18.052   0.313   3.051
  495DOPC   C4B 5934  18.101   0.248   3.352
  496DOPC   NC3 5935  18.138   9.505   1.552
  496DOPC   PO4 5936  18.217   9.541   1.852
  496DOPC   GL1 5937  18.210   9.479   2.152
  496DOPC   GL2 5938  18.081   9.704   2.152
  496DOPC   C1A 5939  18.135   9.462   2.452
  496DOPC   D2A 5940  18.168   9.486   2.752
  496DOPC   C3A 5941  18.185   9.450   3.051
  496DOPC   C4A 5942  18.192   9.483   3.352
  496DOPC   C1B 5943  18.116   9.804   2.452
  496DOPC   D2B 5944  18.043   9.829   2.752
  496DOPC   C3B 5945  18.072   9.886   3.051
  496DOPC   C4B 5946  18.126   9.878   3.352
  497DOPC   NC3 5947   2.618   5.746   1.552
  497DOPC   PO4 5948   2.527   5.768   1.852
  497DOPC   GL1 5949   2.529   5.764   2.152
  497DOPC   GL2 5950   2.763   5.868   2.152
  497DOPC   C1A 5951   2.610   5.716   2.452
  497DOPC   D2A 5952   2.592   5.751   2.752
  497DOPC   C3A 5953   2.601   5.780   3.051
  497DOPC   C4A 5954   2.571   5.742   3.352
  497DOPC   C1B 5955   2.892   5.926   2.452
  497DOPC   D2B 5956   2.953   5.838   2.752
  497DOPC   C3B 5957   2.874   5.895   3.051
  497DOPC   C4B 5958   2.889   5.858   3.352
  498DOPC   NC3 5959  12.669   8.790   1.552
  498DOPC   PO4 5960  12.608   8.798   1.852
  498DOPC   GL1 5961  12.638   8.795   2.152
  498DOPC   GL2 5962  12.757   8.885   2.152
  498DOPC   C1A 5963  12.616   8.719   2.452
  498DOPC   D2A 5964  12.601   8.723   2.752
  498DOPC   C3A 5965  12.618   8.725   3.051
  498DOPC   C4A 5966  12.584   8.756   3.352
  498DOPC   C1B 5967  12.893   9.072   2.452
  498DOPC   D2B 5968  12.815   8.990   2.752
  498DOPC   C3B 5969  12.846   9.031   3.051
  498DOPC   C4B 5970  12.879   9.056   3.352
  499DOPC   NC3 5971  13.348   7.341   1.552
  499DOPC   PO4 5972  13.373   7.322   1.852
  499DOPC   GL1 5973  13.319   7.327   2.152
  499DOPC   GL2 5974  13.514   7.366   2.152
  499DOPC   C1A 5975  13.373   7.374   2.452
  499DOPC   D2A 5976  13.365   7.382   2.752
  499DOPC   C3A 5977  13.302   7.389   3.051
  499DOPC   C4A 5978  13.344   7.309   3.352
  499DOPC   C1B 5979  13.727   7.364   2.452
  499DOPC   D2B 5980  13.685   7.392   2.752
  499DOPC   C3B 5981  13.666   7.328   3.051
  499DOPC   C4B 5982  13.703   7.352   3.352
  500DOPC   NC3 5983   5.871   7.196   1.552
  500DOPC   PO4 5984   5.901   7.165   1.852
  500DOPC   GL1 5985   5.889   7.221   2.152
  500DOPC   GL2 5986   5.836   7.370   2.152
  500DOPC   C1A 5987   5.947   7.212   2.452
  500DOPC   D2A 5988   5.935   7.179   2.752
  500DOPC   C3A 5989   5.913   7.166   3.051
  500DOPC   C4A 5990   5.894   7.188   3.352
  500DOPC   C1B 5991   5.711   7.532   2.452
  500DOPC   D2B 5992   5.743   7.472   2.752
  500DOPC   C3B 5993   5.735   7.530   3.051
  500DOPC   C4B 5994   5.759   7.543   3.352
  501DOPC   NC3 5995   4.316   1.357   1.552
  501DOPC   PO4 5996   4.354   1.385   1.852
  501DOPC   GL1 5997   4.373   1.387   2.152
  501DOPC   GL2 5998   4.320   1.201   2.152
  501DOPC   C1A 5999   4.328   1.385   2.452
  501DOPC   D2A 6000   4.334   1.315   2.752
  501DOPC   C3A 6001   4.341   1.333   3.051
  501DOPC   C4A 6002   4.379   1.390   3.352
  501DOPC   C1B 6003   4.201   1.060   2.452
  501DOPC   D2B 6004   4.243   1.056   2.752
  501DOPC   C3B 6005   4.237   1.002   3.051
  501DOPC   C4B 6006   4.180   1.015   3.352
  502DOPC   NC3 6007  14.273   1.397   1.552
  502DOPC   PO4 6008  14.338   1.386   1.852
  502DOPC   GL1 6009  14.270   1.347   2.152
  502DOPC   GL2 6010  14.239   1.218   2.152
  502DOPC   C1A 6011  14.281   1.369   2.452
  502DOPC   D2A 6012  14.278   1.342   2.752
  502DOPC   C3A 6013  14.339   1.384   3.051
  502DOPC   C4A 6014  14.294   1.417   3.352
  502DOPC   C1B 6015  14.205   1.003   2.452
  502DOPC   D2B 6016  14.289   1.079   2.752
  502DOPC   C3B 6017  14.219   1.060   3.051
  502DOPC   C4B 6018  14.274   0.990   3.352
  503DOPC   NC3 6019  19.070   5.141   1.552
  503DOPC   PO4 6020  19.035   5.140   1.852
  503DOPC   GL1 6021  19.051   5.085   2.152
  503DOPC   GL2 6022  18.928   5.064   2.152
  503DOPC   C1A 6023  19.098   5.133   2.452
  503DOPC   D2A 6024  19.062   5.074   2.752
  503DOPC   C3A 6025  19.031   5.134   3.051
  503DOPC   C4A 6026  19.054   5.058   3.352
  503DOPC   C1B 6027  18.689   5.014   2.452
  503DOPC   D2B 6028  18.736   5.006   2.752
  503DOPC   C3B 6029  18.758   4.960   3.051
  503DOPC   C4B 6030  18.684   5.049   3.352
  504DOPC   NC3 6031   5.837   5.667   1.552
  504DOPC   PO4 6032   5.767   5.653   1.852
  504DOPC   GL1 6033   5.758   5.611   2.152
  504DOPC   GL2 6034   5.826   5.835   2.152
  504DOPC   C1A 6035   5.799   5.643   2.452
  504DOPC   D2A 6036   5.829   5.599   2.752
  504DOPC   C3A 6037   5.774   5.604   3.051
  504DOPC   C4A 6038   5.759   5.639   3.352
  504DOPC   C1B 6039   5.838   5.964   2.452
  504DOPC   D2B 6040   5.793   6.002   2.752
  504DOPC   C3B 6041   5.883   5.959   3.051
  504DOPC   C4B 6042   5.846   6.001   3.352
  505DOPC   NC3 6043  18.818   7.533   1.552
  505DOPC   PO4 6044  18.869   7.519   1.852
  505DOPC   GL1 6045  18.792   7.547   2.152
  505DOPC   GL2 6046  18.862   7.309   2.152
  505DOPC   C1A 6047  18.832   7.483   2.452
  505DOPC   D2A 6048  18.811   7.526   2.752
  505DOPC   C3A 6049  18.796   7.537   3.051
  505DOPC   C4A 6050  18.878   7.498   3.352
  505DOPC   C1B 6051  18.942   7.224   2.452
  505DOPC   D2B 6052  18.974   7.202   2.752
  505DOPC   C3B 6053  18.953   7.229   3.051
  505DOPC   C4B 6054  18.929   7.220   3.352
  506DOPC   NC3 6055  14.389   8.000   1.552
  506DOPC   PO4 6056  14.429   7.970   1.852
  506DOPC   GL1 6057  14.430   8.029   2.152
  506DOPC   GL2 6058  14.324   8.156   2.152
  506DOPC   C1A 6059  14.451   7.977   2.452
  506DOPC   D2A 6060  14.387   7.957   2.752
  506DOPC   C3A 6061  14.420   8.016   3.051
  506DOPC   C4A 6062  14.418   8.028   3.352
  506DOPC   C1B 6063  14.196   8.227   2.452
  506DOPC   D2B 6064  14.113   8.278   2.752
  506DOPC   C3B 6065  14.109   8.288   3.051
  506DOPC   C4B 6066  14.154   8.295   3.352
  507DOPC   NC3 6067  19.613   2.189   1.552
  507DOPC   PO4 6068  19.651   2.127   1.852
  507DOPC   GL1 6069  19.690   2.200   2.152
  507DOPC   GL2 6070  19.708   1.929   2.152
  507DOPC   C1A 6071  19.682   2.146   2.452
  507DOPC   D2A 6072  19.618   2.107   2.752
  507DOPC   C3A 6073  19.602   2.135   3.051
  507DOPC   C4A 6074  19.682   2.199   3.352
  507DOPC   C1B 6075  19.674   1.796   2.452
  507DOPC   D2B 6076  19.648   1.786   2.752
  507DOPC   C3B 6077  19.717   1.801   3.051
  507DOPC   C4B 6078  19.726   1.822   3.352
  508DOPC   NC3 6079   7.985   0.333   1.552
  508DOPC   PO4 6080   7.994   0.254   1.852
  508DOPC   GL1 6081   8.052   0.276   2.152
  508DOPC   GL2 6082   8.157   0.450   2.152
  508DOPC   C1A 6083   8.023   0.324   2.452
  508DOPC   D2A 6084   8.065   0.247   2.752
  508DOPC   C3A 6085   8.033   0.305   3.051
  508DOPC   C4A 6086   8.032   0.244   3.352
  508DOPC   C1B 6087   8.268   0.611   2.452
  508DOPC   D2B 6088   8.189   0.587   2.752
  508DOPC   C3B 6089   8.224   0.554   3.051
  508DOPC   C4B 6090   8.187   0.553   3.352
  509DOPC   NC3 6091   5.634   8.056   1.552
  509DOPC   PO4 6092   5.683   8.068   1.852
  509DOPC   GL1 6093   5.667   8.084   2.152
  509DOPC   GL2 6094   5.832   8.154   2.152
  509DOPC   C1A 6095   5.652   8.131   2.452
  509DOPC   D2A 6096   5.613   8.116   2.752
  509DOPC   C3A 6097   5.646   8.119   3.051
  509DOPC   C4A 6098   5.672   8.064   3.352
  509DOPC   C1B 6099   5.977   8.178   2.452
  509DOPC   D2B 6100   6.022   8.190   2.752
  509DOPC   C3B 6101   5.961   8.151   3.051
  509DOPC   C4B 6102   5.955   8.198   3.352
  510DOPC   NC3 6103   5.873   3.387   1.552
  510DOPC   PO4 6104   5.912   3.380   1.852
  510DOPC   GL1 6105   5.875   3.359   2.152
  510DOPC   GL2 6106   5.849   3.548   2.152
  510DOPC   C1A 6107   5.878   3.372   2.452
  510DOPC   D2A 6108   5.909   3.387   2.752
  510DOPC   C3A 6109   5.914   3.325   3.051
  510DOPC   C4A 6110   5.877   3.364   3.352
  510DOPC   C1B 6111   5.766   3.673   2.452
  510DOPC   D2B 6112   5.773   3.716   2.752
  510DOPC   C3B 6113   5.760   3.679   3.051
  510DOPC   C4B 6114   5.760   3.631   3.352
  511DOPC   NC3 6115   7.537   4.953   1.552
  511DOPC   PO4 6116   7.480   5.016   1.852
  511DOPC   GL1 6117   7.506   4.948   2.152
  511DOPC   GL2 6118   7.323   5.047   2.152
  511DOPC   C1A 6119   7.476   4.993   2.452
  511DOPC   D2A 6120   7.484   4.953   2.752
  511DOPC   C3A 6121   7.563   5.038   3.051
  511DOPC   C4A 6122   7.535   4.942   3.352
  511DOPC   C1B 6123   7.204   5.075   2.452
  511DOPC   D2B 6124   7.152   5.140   2.752
  511DOPC   C3B 6125   7.236   5.084   3.051
  511DOPC   C4B 6126   7.154   5.136   3.352
  512DOPC   NC3 6127  14.967   2.891   1.552
  512DOPC   PO4 6128  14.980   2.838   1.852
  512DOPC   GL1 6129  14.918   2.848   2.152
  512DOPC   GL2 6130  15.003   2.707   2.152
  512DOPC   C1A 6131  14.954   2.838   2.452
  512DOPC   D2A 6132  14.977   2.870   2.752
  512DOPC   C3A 6133  14.915   2.924   3.051
  512DOPC   C4A 6134  14.926   2.914   3.352
  512DOPC   C1B 6135  15.149   2.639   2.452
  512DOPC   D2B 6136  15.150   2.597   2.752
  512DOPC   C3B 6137  15.144   2.574   3.051
  512DOPC   C4B 6138  15.182   2.592   3.352
  513DOPC   NC3 6139   1.270   8.302   1.552
  513DOPC   PO4 6140   1.247   8.335   1.852
  513DOPC   GL1 6141   1.222   8.300   2.152
  513DOPC   GL2 6142   1.229   8.148   2.152
  513DOPC   C1A 6143   1.301   8.309   2.452
  513DOPC   D2A 6144   1.305   8.253   2.752
  513DOPC   C3A 6145   1.241   8.270   3.051
  513DOPC   C4A 6146   1.296   8.323   3.352
  513DOPC   C1B 6147   1.178   7.978   2.452
  513DOPC   D2B 6148   1.109   8.004   2.752
  513DOPC   C3B 6149   1.192   7.993   3.051
  513DOPC   C4B 6150   1.175   7.934   3.352
  514DOPC   NC3 6151   1.818   8.943   1.552
  514DOPC   PO4 6152   1.813   8.961   1.852
  514DOPC   GL1 6153   1.774   9.014   2.152
  514DOPC   GL2 6154   2.007   8.920   2.152
  514DOPC   C1A 6155   1.839   8.963   2.452
  514DOPC   D2A 6156   1.836   8.954   2.752
  514DOPC   C3A 6157   1.775   8.932   3.051
  514DOPC   C4A 6158   1.770   8.946   3.352
  514DOPC   C1B 6159   2.109   8.780   2.452
  514DOPC   D2B 6160   2.149   8.820   2.752
  514DOPC   C3B 6161   2.107   8.850   3.051
  514DOPC   C4B 6162   2.097   8.783   3.352
  515DOPC   NC3 6163  17.218   5.161   1.552
  515DOPC   PO4 6164  17.199   5.117   1.852
  515DOPC   GL1 6165  17.224   5.091   2.152
  515DOPC   GL2 6166  17.350   5.071   2.152
  515DOPC   C1A 6167  17.203   5.155   2.452
  515DOPC   D2A 6168  17.186   5.173   2.752
  515DOPC   C3A 6169  17.173   5.119   3.051
  515DOPC   C4A 6170  17.208   5.101   3.352
  515DOPC   C1B 6171  17.521   5.009   2.452
  515DOPC   D2B 6172  17.489   5.012   2.752
  515DOPC   C3B 6173  17.489   4.979   3.051
  515DOPC   C4B 6174  17.541   4.984   3.352
  516DOPC   NC3 6175  15.245   5.019   1.552
  516DOPC   PO4 6176  15.253   4.962   1.852
  516DOPC   GL1 6177  15.174   4.968   2.152
  516DOPC   GL2 6178  15.045   5.081   2.152
  516DOPC   C1A 6179  15.172   5.004   2.452
  516DOPC   D2A 6180  15.214   5.018   2.752
  516DOPC   C3A 6181  15.203   4.980   3.051
  516DOPC   C4A 6182  15.211   4.992   3.352
  516DOPC   C1B 6183  14.917   5.106   2.452
  516DOPC   D2B 6184  14.853   5.116   2.752
  516DOPC   C3B 6185  14.860   5.159   3.051
  516DOPC   C4B 6186  14.921   5.156   3.352
  517DOPC   NC3 6187   8.787   1.003   1.552
  517DOPC   PO4 6188   8.788   1.094   1.852
  517DOPC   GL1 6189   8.756   1.079   2.152
  517DOPC   GL2 6190   8.869   1.250   2.152
  517DOPC   C1A 6191   8.785   1.096   2.452
  517DOPC   D2A 6192   8.841   1.069   2.752
  517DOPC   C3A 6193   8.771   1.062   3.051
  517DOPC   C4A 6194   8.786   1.097   3.352
  517DOPC   C1B 6195   8.992   1.377   2.452
  517DOPC   D2B 6196   8.995   1.336   2.752
  517DOPC   C3B 6197   8.997   1.308   3.051
  517DOPC   C4B 6198   8.981   1.358   3.352
  518DOPC   NC3 6199  14.883   5.929   1.552
  518DOPC   PO4 6200  14.881   5.967   1.852
  518DOPC   GL1 6201  14.955   5.898   2.152
  518DOPC   GL2 6202  15.090   5.821   2.152
  518DOPC   C1A 6203  14.918   5.889   2.452
  518DOPC   D2A 6204  14.915   5.979   2.752
  518DOPC   C3A 6205  14.869   5.887   3.051
  518DOPC   C4A 6206  14.952   5.960   3.352
  518DOPC   C1B 6207  15.146   5.693   2.452
  518DOPC   D2B 6208  15.170   5.723   2.752
  518DOPC   C3B 6209  15.199   5.690   3.051
  518DOPC   C4B 6210  15.141   5.688   3.352
  519DOPC   NC3 6211  13.693   4.270   1.552
  519DOPC   PO4 6212  13.708   4.242   1.852
  519DOPC   GL1 6213  13.728   4.232   2.152
  519DOPC   GL2 6214  13.522   4.282   2.152
  519DOPC   C1A 6215  13.641   4.291   2.452
  519DOPC   D2A 6216  13.663   4.250   2.752
  519DOPC   C3A 6217  13.642   4.322   3.051
  519DOPC   C4A 6218  13.645   4.310   3.352
  519DOPC   C1B 6219  13.357   4.325   2.452
  519DOPC   D2B 6220  13.367   4.314   2.752
  519DOPC   C3B 6221  13.359   4.280   3.051
  519DOPC   C4B 6222  13.327   4.263   3.352
  520DOPC   NC3 6223   8.346   6.543   1.552
  520DOPC   PO4 6224   8.260   6.568   1.852
  520DOPC   GL1 6225   8.351   6.509   2.152
  520DOPC   GL2 6226   8.098   6.589   2.152
  520DOPC   C1A 6227   8.320   6.563   2.452
  520DOPC   D2A 6228   8.288   6.521   2.752
  520DOPC   C3A 6229   8.256   6.511   3.051
  520DOPC   C4A 6230   8.257   6.545   3.352
  520DOPC   C1B 6231   7.969   6.610   2.452
  520DOPC   D2B 6232   7.964   6.581   2.752
  520DOPC   C3B 6233   7.977   6.595   3.051
  520DOPC   C4B 6234   7.936   6.658   3.352
  521DOPC   NC3 6235  11.319   4.183   1.552
  521DOPC   PO4 6236  11.275   4.126   1.852
  521DOPC   GL1 6237  11.310   4.137   2.152
  521DOPC   GL2 6238  11.180   4.318   2.152
  521DOPC   C1A 6239  11.265   4.168   2.452
  521DOPC   D2A 6240  11.353   4.155   2.752
  521DOPC   C3A 6241  11.346   4.089   3.051
  521DOPC   C4A 6242  11.271   4.111   3.352
  521DOPC   C1B 6243  11.058   4.374   2.452
  521DOPC   D2B 6244  11.130   4.446   2.752
  521DOPC   C3B 6245  11.105   4.450   3.051
  521DOPC   C4B 6246  11.096   4.467   3.352
  522DOPC   NC3 6247  11.150   5.637   1.552
  522DOPC   PO4 6248  11.176   5.646   1.852
  522DOPC   GL1 6249  11.139   5.606   2.152
  522DOPC   GL2 6250  11.230   5.815   2.152
  522DOPC   C1A 6251  11.091   5.643   2.452
  522DOPC   D2A 6252  11.165   5.637   2.752
  522DOPC   C3A 6253  11.189   5.701   3.051
  522DOPC   C4A 6254  11.139   5.685   3.352
  522DOPC   C1B 6255  11.282   5.972   2.452
  522DOPC   D2B 6256  11.310   5.951   2.752
  522DOPC   C3B 6257  11.248   6.025   3.051
  522DOPC   C4B 6258  11.292   5.979   3.352
  523DOPC   NC3 6259   7.224   1.275   1.552
  523DOPC   PO4 6260   7.228   1.321   1.852
  523DOPC   GL1 6261   7.245   1.291   2.152
  523DOPC   GL2 6262   7.340   1.199   2.152
  523DOPC   C1A 6263   7.199   1.337   2.452
  523DOPC   D2A 6264   7.255   1.345   2.752
  523DOPC   C3A 6265   7.180   1.347   3.051
  523DOPC   C4A 6266   7.255   1.305   3.352
  523DOPC   C1B 6267   7.555   1.127   2.452
  523DOPC   D2B 6268   7.493   1.084   2.752
  523DOPC   C3B 6269   7.495   1.132   3.051
  523DOPC   C4B 6270   7.472   1.141   3.352
  524DOPC   NC3 6271  19.782   6.652   1.552
  524DOPC   PO4 6272  19.811   6.717   1.852
  524DOPC   GL1 6273  19.795   6.701   2.152
  524DOPC   GL2 6274  19.680   6.593   2.152
  524DOPC   C1A 6275  19.782   6.717   2.452
  524DOPC   D2A 6276  19.779   6.674   2.752
  524DOPC   C3A 6277  19.854   6.665   3.051
  524DOPC   C4A 6278  19.780   6.664   3.352
  524DOPC   C1B 6279  19.497   6.448   2.452
  524DOPC   D2B 6280  19.492   6.530   2.752
  524DOPC   C3B 6281  19.533   6.527   3.051
  524DOPC   C4B 6282  19.494   6.459   3.352
  525DOPC   NC3 6283  15.211   1.261   1.552
  525DOPC   PO4 6284  15.231   1.320   1.852
  525DOPC   GL1 6285  15.167   1.250   2.152
  525DOPC   GL2 6286  15.056   1.172   2.152
  525DOPC   C1A 6287  15.239   1.269   2.452
  525DOPC   D2A 6288  15.163   1.293   2.752
  525DOPC   C3A 6289  15.166   1.253   3.051
  525DOPC   C4A 6290  15.176   1.322   3.352
  525DOPC   C1B 6291  14.924   1.098   2.452
  525DOPC   D2B 6292  14.850   1.121   2.752
  525DOPC   C3B 6293  14.861   1.113   3.051
  525DOPC   C4B 6294  14.924   1.067   3.352
  526DOPC   NC3 6295   8.217   1.363   1.552
  526DOPC   PO4 6296   8.223   1.335   1.852
  526DOPC   GL1 6297   8.269   1.356   2.152
  526DOPC   GL2 6298   8.089   1.203   2.152
  526DOPC   C1A 6299   8.264   1.298   2.452
  526DOPC   D2A 6300   8.214   1.378   2.752
  526DOPC   C3A 6301   8.250   1.301   3.051
  526DOPC   C4A 6302   8.250   1.308   3.352
  526DOPC   C1B 6303   7.996   1.107   2.452
  526DOPC   D2B 6304   7.979   1.098   2.752
  526DOPC   C3B 6305   7.961   1.088   3.051
  526DOPC   C4B 6306   8.042   1.121   3.352
  527DOPC   NC3 6307  19.556   7.480   1.552
  527DOPC   PO4 6308  19.543   7.459   1.852
  527DOPC   GL1 6309  19.506   7.516   2.152
  527DOPC   GL2 6310  19.673   7.372   2.152
  527DOPC   C1A 6311  19.528   7.459   2.452
  527DOPC   D2A 6312  19.574   7.462   2.752
  527DOPC   C3A 6313  19.581   7.457   3.051
  527DOPC   C4A 6314  19.560   7.478   3.352
  527DOPC   C1B 6315  19.788   7.254   2.452
  527DOPC   D2B 6316  19.769   7.199   2.752
  527DOPC   C3B 6317  19.792   7.207   3.051
  527DOPC   C4B 6318  19.803   7.266   3.352
  528DOPC   NC3 6319   7.425   9.026   1.552
  528DOPC   PO4 6320   7.436   9.064   1.852
  528DOPC   GL1 6321   7.446   9.034   2.152
  528DOPC   GL2 6322   7.350   8.850   2.152
  528DOPC   C1A 6323   7.445   9.078   2.452
  528DOPC   D2A 6324   7.431   9.062   2.752
  528DOPC   C3A 6325   7.431   9.006   3.051
  528DOPC   C4A 6326   7.473   9.099   3.352
  528DOPC   C1B 6327   7.229   8.707   2.452
  528DOPC   D2B 6328   7.305   8.769   2.752
  528DOPC   C3B 6329   7.273   8.716   3.051
  528DOPC   C4B 6330   7.245   8.717   3.352
  529DOPC   NC3 6331  17.172   7.425   1.552
  529DOPC   PO4 6332  17.147   7.464   1.852
  529DOPC   GL1 6333  17.195   7.472   2.152
  529DOPC   GL2 6334  17.309   7.382   2.152
  529DOPC   C1A 6335  17.169   7.421   2.452
  529DOPC   D2A 6336  17.210   7.399   2.752
  529DOPC   C3A 6337  17.223   7.467   3.051
  529DOPC   C4A 6338  17.210   7.430   3.352
  529DOPC   C1B 6339  17.527   7.302   2.452
  529DOPC   D2B 6340  17.550   7.257   2.752
  529DOPC   C3B 6341  17.564   7.331   3.051
  529DOPC   C4B 6342  17.486   7.265   3.352
  530DOPC   NC3 6343   2.167   0.367   1.552
  530DOPC   PO4 6344   2.171   0.336   1.852
  530DOPC   GL1 6345   2.086   0.332   2.152
  530DOPC   GL2 6346   2.001   0.398   2.152
  530DOPC   C1A 6347   2.124   0.320   2.452
  530DOPC   D2A 6348   2.092   0.322   2.752
  530DOPC   C3A 6349   2.138   0.362   3.051
  530DOPC   C4A 6350   2.101   0.356   3.352
  530DOPC   C1B 6351   1.830   0.563   2.452
  530DOPC   D2B 6352   1.789   0.522   2.752
  530DOPC   C3B 6353   1.862   0.475   3.051
  530DOPC   C4B 6354   1.779   0.513   3.352
  531DOPC   NC3 6355  15.144   4.398   1.552
  531DOPC   PO4 6356  15.185   4.457   1.852
  531DOPC   GL1 6357  15.170   4.412   2.152
  531DOPC   GL2 6358  15.033   4.264   2.152
  531DOPC   C1A 6359  15.199   4.434   2.452
  531DOPC   D2A 6360  15.204   4.448   2.752
  531DOPC   C3A 6361  15.148   4.454   3.051
  531DOPC   C4A 6362  15.208   4.427   3.352
  531DOPC   C1B 6363  14.884   4.165   2.452
  531DOPC   D2B 6364  14.910   4.141   2.752
  531DOPC   C3B 6365  14.973   4.151   3.051
  531DOPC   C4B 6366  14.978   4.110   3.352
  532DOPC   NC3 6367   2.109   7.463   1.552
  532DOPC   PO4 6368   2.122   7.495   1.852
  532DOPC   GL1 6369   2.106   7.499   2.152
  532DOPC   GL2 6370   1.923   7.392   2.152
  532DOPC   C1A 6371   2.075   7.448   2.452
  532DOPC   D2A 6372   2.136   7.463   2.752
  532DOPC   C3A 6373   2.131   7.473   3.051
  532DOPC   C4A 6374   2.158   7.444   3.352
  532DOPC   C1B 6375   1.782   7.289   2.452
  532DOPC   D2B 6376   1.818   7.295   2.752
  532DOPC   C3B 6377   1.824   7.210   3.051
  532DOPC   C4B 6378   1.774   7.287   3.352
  533DOPC   NC3 6379   2.125   3.449   1.552
  533DOPC   PO4 6380   2.098   3.432   1.852
  533DOPC   GL1 6381   2.126   3.410   2.152
  533DOPC   GL2 6382   2.005   3.545   2.152
  533DOPC   C1A 6383   2.185   3.446   2.452
  533DOPC   D2A 6384   2.151   3.478   2.752
  533DOPC   C3A 6385   2.135   3.497   3.051
  533DOPC   C4A 6386   2.175   3.464   3.352
  533DOPC   C1B 6387   1.803   3.603   2.452
  533DOPC   D2B 6388   1.804   3.560   2.752
  533DOPC   C3B 6389   1.797   3.528   3.051
  533DOPC   C4B 6390   1.816   3.588   3.352
  534DOPC   NC3 6391  19.057   6.719   1.552
  534DOPC   PO4 6392  18.989   6.763   1.852
  534DOPC   GL1 6393  18.994   6.713   2.152
  534DOPC   GL2 6394  18.943   6.548   2.152
  534DOPC   C1A 6395  19.045   6.728   2.452
  534DOPC   D2A 6396  18.980   6.718   2.752
  534DOPC   C3A 6397  19.000   6.694   3.051
  534DOPC   C4A 6398  19.049   6.769   3.352
  534DOPC   C1B 6399  18.757   6.459   2.452
  534DOPC   D2B 6400  18.798   6.486   2.752
  534DOPC   C3B 6401  18.787   6.444   3.051
  534DOPC   C4B 6402  18.828   6.400   3.352
  535DOPC   NC3 6403  19.475   8.975   1.552
  535DOPC   PO4 6404  19.451   8.921   1.852
  535DOPC   GL1 6405  19.447   8.895   2.152
  535DOPC   GL2 6406  19.704   8.868   2.152
  535DOPC   C1A 6407  19.514   8.930   2.452
  535DOPC   D2A 6408  19.471   8.944   2.752
  535DOPC   C3A 6409  19.461   8.976   3.051
  535DOPC   C4A 6410  19.442   8.958   3.352
  535DOPC   C1B 6411  19.791   8.810   2.452
  535DOPC   D2B 6412  19.838   8.819   2.752
  535DOPC   C3B 6413  19.848   8.906   3.051
  535DOPC   C4B 6414  19.825   8.854   3.352
  536DOPC   NC3 6415  11.139   6.444   1.552
  536DOPC   PO4 6416  11.138   6.474   1.852
  536DOPC   GL1 6417  11.090   6.442   2.152
  536DOPC   GL2 6418  11.165   6.619   2.152
  536DOPC   C1A 6419  11.073   6.448   2.452
  536DOPC   D2A 6420  11.168   6.441   2.752
  536DOPC   C3A 6421  11.092   6.392   3.051
  536DOPC   C4A 6422  11.094   6.474   3.352
  536DOPC   C1B 6423  11.326   6.780   2.452
  536DOPC   D2B 6424  11.314   6.740   2.752
  536DOPC   C3B 6425  11.287   6.750   3.051
  536DOPC   C4B 6426  11.325   6.787   3.352
  537DOPC   NC3 6427  19.473   0.463   1.552
  537DOPC   PO4 6428  19.530   0.482   1.852
  537DOPC   GL1 6429  19.525   0.452   2.152
  537DOPC   GL2 6430  19.696   0.388   2.152
  537DOPC   C1A 6431  19.486   0.483   2.452
  537DOPC   D2A 6432  19.482   0.460   2.752
  537DOPC   C3A 6433  19.520   0.494   3.051
  537DOPC   C4A 6434  19.525   0.511   3.352
  537DOPC   C1B 6435  19.870   0.438   2.452
  537DOPC   D2B 6436  19.841   0.378   2.752
  537DOPC   C3B 6437  19.870   0.362   3.051
  537DOPC   C4B 6438  19.810   0.359   3.352
  538DOPC   NC3 6439   1.343   9.635   1.552
  538DOPC   PO4 6440   1.357   9.683   1.852
  538DOPC   GL1 6441   1.336   9.613   2.152
  538DOPC   GL2 6442   1.208   9.633   2.152
  538DOPC   C1A 6443   1.333   9.660   2.452
  538DOPC   D2A 6444   1.341   9.631   2.752
  538DOPC   C3A 6445   1.430   9.678   3.051
  538DOPC   C4A 6446   1.345   9.700   3.352
  538DOPC   C1B 6447   0.989   9.708   2.452
  538DOPC   D2B 6448   1.011   9.714   2.752
  538DOPC   C3B 6449   1.068   9.660   3.051
  538DOPC   C4B 6450   1.008   9.648   3.352
  539DOPC   NC3 6451   9.739   1.803   1.552
  539DOPC   PO4 6452   9.682   1.808   1.852
  539DOPC   GL1 6453   9.738   1.771   2.152
  539DOPC   GL2 6454   9.617   1.953   2.152
  539DOPC   C1A 6455   9.693   1.800   2.452
  539DOPC   D2A 6456   9.650   1.780   2.752
  539DOPC   C3A 6457   9.744   1.841   3.051
  539DOPC   C4A 6458   9.742   1.805   3.352
  539DOPC   C1B 6459   9.659   2.174   2.452
  539DOPC   D2B 6460   9.677   2.109   2.752
  539DOPC   C3B 6461   9.617   2.168   3.051
  539DOPC   C4B 6462   9.664   2.178   3.352
  540DOPC   NC3 6463   8.020   3.361   1.552
  540DOPC   PO4 6464   8.021   3.444   1.852
  540DOPC   GL1 6465   8.015   3.424   2.152
  540DOPC   GL2 6466   8.133   3.474   2.152
  540DOPC   C1A 6467   7.992   3.455   2.452
  540DOPC   D2A 6468   8.002   3.408   2.752
  540DOPC   C3A 6469   7.975   3.426   3.051
  540DOPC   C4A 6470   8.030   3.447   3.352
  540DOPC   C1B 6471   8.233   3.606   2.452
  540DOPC   D2B 6472   8.253   3.583   2.752
  540DOPC   C3B 6473   8.288   3.578   3.051
  540DOPC   C4B 6474   8.252   3.584   3.352
  541DOPC   NC3 6475   9.517   7.415   1.552
  541DOPC   PO4 6476   9.545   7.471   1.852
  541DOPC   GL1 6477   9.480   7.484   2.152
  541DOPC   GL2 6478   9.689   7.326   2.152
  541DOPC   C1A 6479   9.503   7.486   2.452
  541DOPC   D2A 6480   9.463   7.490   2.752
  541DOPC   C3A 6481   9.506   7.441   3.051
  541DOPC   C4A 6482   9.534   7.411   3.352
  541DOPC   C1B 6483   9.793   7.306   2.452
  541DOPC   D2B 6484   9.848   7.259   2.752
  541DOPC   C3B 6485   9.785   7.228   3.051
  541DOPC   C4B 6486   9.814   7.321   3.352
  542DOPC   NC3 6487   7.528   4.376   1.552
  542DOPC   PO4 6488   7.520   4.378   1.852
  542DOPC   GL1 6489   7.508   4.422   2.152
  542DOPC   GL2 6490   7.387   4.292   2.152
  542DOPC   C1A 6491   7.464   4.410   2.452
  542DOPC   D2A 6492   7.500   4.363   2.752
  542DOPC   C3A 6493   7.508   4.425   3.051
  542DOPC   C4A 6494   7.514   4.422   3.352
  542DOPC   C1B 6495   7.245   4.181   2.452
  542DOPC   D2B 6496   7.245   4.199   2.752
  542DOPC   C3B 6497   7.239   4.143   3.051
  542DOPC   C4B 6498   7.276   4.186   3.352
  543DOPC   NC3 6499   2.830   4.400   1.552
  543DOPC   PO4 6500   2.815   4.445   1.852
  543DOPC   GL1 6501   2.828   4.401   2.152
  543DOPC   GL2 6502   2.727   4.259   2.152
  543DOPC   C1A 6503   2.873   4.468   2.452
  543DOPC   D2A 6504   2.857   4.401   2.752
  543DOPC   C3A 6505   2.862   4.460   3.051
  543DOPC   C4A 6506   2.878   4.421   3.352
  543DOPC   C1B 6507   2.667   4.082   2.452
  543DOPC   D2B 6508   2.694   4.143   2.752
  543DOPC   C3B 6509   2.678   4.127   3.051
  543DOPC   C4B 6510   2.622   4.136   3.352
  544DOPC   NC3 6511   0.285   8.015   1.552
  544DOPC   PO4 6512   0.282   8.061   1.852
  544DOPC   GL1 6513   0.269   7.977   2.152
  544DOPC   GL2 6514   0.387   8.150   2.152
  544DOPC   C1A 6515   0.276   7.982   2.452
  544DOPC   D2A 6516   0.268   7.973   2.752
  544DOPC   C3A 6517   0.300   8.060   3.051
  544DOPC   C4A 6518   0.296   7.998   3.352
  544DOPC   C1B 6519   0.569   8.277   2.452
  544DOPC   D2B 6520   0.528   8.282   2.752
  544DOPC   C3B 6521   0.594   8.217   3.051
  544DOPC   C4B 6522   0.559   8.254   3.352
  545DOPC   NC3 6523   5.967   2.054   1.552
  545DOPC   PO4 6524   5.991   2.054   1.852
  545DOPC   GL1 6525   5.999   2.143   2.152
  545DOPC   GL2 6526   5.807   2.005   2.152
  545DOPC   C1A 6527   5.949   2.116   2.452
  545DOPC   D2A 6528   5.930   2.047   2.752
  545DOPC   C3A 6529   5.924   2.063   3.051
  545DOPC   C4A 6530   5.966   2.047   3.352
  545DOPC   C1B 6531   5.677   1.848   2.452
  545DOPC   D2B 6532   5.738   1.894   2.752
  545DOPC   C3B 6533   5.661   1.890   3.051
  545DOPC   C4B 6534   5.675   1.806   3.352
  546DOPC   NC3 6535  15.918   5.225   1.552
  546DOPC   PO4 6536  15.946   5.206   1.852
  546DOPC   GL1 6537  15.873   5.216   2.152
  546DOPC   GL2 6538  15.839   5.056   2.152
  546DOPC   C1A 6539  15.969   5.219   2.452
  546DOPC   D2A 6540  15.901   5.174   2.752
  546DOPC   C3A 6541  15.939   5.217   3.051
  546DOPC   C4A 6542  15.958   5.233   3.352
  546DOPC   C1B 6543  15.707   4.887   2.452
  546DOPC   D2B 6544  15.674   4.873   2.752
  546DOPC   C3B 6545  15.680   4.927   3.051
  546DOPC   C4B 6546  15.710   4.852   3.352
  547DOPC   NC3 6547   1.370   1.186   1.552
  547DOPC   PO4 6548   1.416   1.153   1.852
  547DOPC   GL1 6549   1.364   1.135   2.152
  547DOPC   GL2 6550   1.235   1.231   2.152
  547DOPC   C1A 6551   1.423   1.166   2.452
  547DOPC   D2A 6552   1.350   1.112   2.752
  547DOPC   C3A 6553   1.386   1.185   3.051
  547DOPC   C4A 6554   1.383   1.156   3.352
  547DOPC   C1B 6555   1.074   1.242   2.452
  547DOPC   D2B 6556   0.999   1.267   2.752
  547DOPC   C3B 6557   1.029   1.242   3.051
  547DOPC   C4B 6558   1.067   1.242   3.352
  548DOPC   NC3 6559   6.525   9.067   1.552
  548DOPC   PO4 6560   6.519   9.061   1.852
  548DOPC   GL1 6561   6.551   9.082   2.152
  548DOPC   GL2 6562   6.628   8.908   2.152
  548DOPC   C1A 6563   6.577   9.085   2.452
  548DOPC   D2A 6564   6.577   9.097   2.752
  548DOPC   C3A 6565   6.528   9.029   3.051
  548DOPC   C4A 6566   6.603   9.036   3.352
  548DOPC   C1B 6567   6.607   8.765   2.452
  548DOPC   D2B 6568   6.622   8.704   2.752
  548DOPC   C3B 6569   6.658   8.742   3.051
  548DOPC   C4B 6570   6.658   8.744   3.352
  549DOPC   NC3 6571  12.120   7.511   1.552
  549DOPC   PO4 6572  12.061   7.474   1.852
  549DOPC   GL1 6573  12.104   7.474   2.152
  549DOPC   GL2 6574  11.934   7.319   2.152
  549DOPC   C1A 6575  12.102   7.539   2.452
  549DOPC   D2A 6576  12.044   7.553   2.752
  549DOPC   C3A 6577  12.116   7.555   3.051
  549DOPC   C4A 6578  12.114   7.465   3.352
  549DOPC   C1B 6579  11.838   7.252   2.452
  549DOPC   D2B 6580  11.877   7.245   2.752
  549DOPC   C3B 6581  11.860   7.164   3.051
  549DOPC   C4B 6582  11.909   7.241   3.352
  550DOPC   NC3 6583   8.064   5.187   1.552
  550DOPC   PO4 6584   8.102   5.194   1.852
  550DOPC   GL1 6585   8.088   5.201   2.152
  550DOPC   GL2 6586   8.164   5.078   2.152
  550DOPC   C1A 6587   8.078   5.232   2.452
  550DOPC   D2A 6588   8.066   5.181   2.752
  550DOPC   C3A 6589   8.084   5.243   3.051
  550DOPC   C4A 6590   8.012   5.227   3.352
  550DOPC   C1B 6591   8.231   4.881   2.452
  550DOPC   D2B 6592   8.170   4.913   2.752
  550DOPC   C3B 6593   8.197   4.884   3.051
  550DOPC   C4B 6594   8.234   4.908   3.352
  551DOPC   NC3 6595   2.628   0.315   1.552
  551DOPC   PO4 6596   2.559   0.366   1.852
  551DOPC   GL1 6597   2.578   0.393   2.152
  551DOPC   GL2 6598   2.773   0.482   2.152
  551DOPC   C1A 6599   2.621   0.381   2.452
  551DOPC   D2A 6600   2.563   0.341   2.752
  551DOPC   C3A 6601   2.622   0.341   3.051
  551DOPC   C4A 6602   2.568   0.370   3.352
  551DOPC   C1B 6603   2.893   0.476   2.452
  551DOPC   D2B 6604   2.913   0.477   2.752
  551DOPC   C3B 6605   2.912   0.538   3.051
  551DOPC   C4B 6606   2.950   0.517   3.352
  552DOPC   NC3 6607   1.795   6.581   1.552
  552DOPC   PO4 6608   1.791   6.589   1.852
  552DOPC   GL1 6609   1.847   6.570   2.152
  552DOPC   GL2 6610   2.013   6.565   2.152
  552DOPC   C1A 6611   1.790   6.625   2.452
  552DOPC   D2A 6612   1.769   6.594   2.752
  552DOPC   C3A 6613   1.804   6.664   3.051
  552DOPC   C4A 6614   1.763   6.659   3.352
  552DOPC   C1B 6615   2.148   6.520   2.452
  552DOPC   D2B 6616   2.163   6.550   2.752
  552DOPC   C3B 6617   2.123   6.511   3.051
  552DOPC   C4B 6618   2.190   6.546   3.352
  553DOPC   NC3 6619  19.045   4.364   1.552
  553DOPC   PO4 6620  19.101   4.404   1.852
  553DOPC   GL1 6621  19.017   4.352   2.152
  553DOPC   GL2 6622  18.917   4.326   2.152
  553DOPC   C1A 6623  19.055   4.397   2.452
  553DOPC   D2A 6624  19.012   4.374   2.752
  553DOPC   C3A 6625  19.023   4.404   3.051
  553DOPC   C4A 6626  19.061   4.333   3.352
  553DOPC   C1B 6627  18.738   4.207   2.452
  553DOPC   D2B 6628  18.743   4.206   2.752
  553DOPC   C3B 6629  18.721   4.175   3.051
  553DOPC   C4B 6630  18.779   4.184   3.352
  554DOPC   NC3 6631  11.881   3.692   1.552
  554DOPC   PO4 6632  11.918   3.625   1.852
  554DOPC   GL1 6633  11.873   3.631   2.152
  554DOPC   GL2 6634  11.960   3.496   2.152
  554DOPC   C1A 6635  11.874   3.699   2.452
  554DOPC   D2A 6636  11.825   3.709   2.752
  554DOPC   C3A 6637  11.846   3.637   3.051
  554DOPC   C4A 6638  11.840   3.656   3.352
  554DOPC   C1B 6639  12.055   3.316   2.452
  554DOPC   D2B 6640  12.071   3.404   2.752
  554DOPC   C3B 6641  12.028   3.315   3.051
  554DOPC   C4B 6642  12.025   3.338   3.352
  555DOPC   NC3 6643  18.758   1.373   1.552
  555DOPC   PO4 6644  18.780   1.388   1.852
  555DOPC   GL1 6645  18.811   1.353   2.152
  555DOPC   GL2 6646  18.875   1.188   2.152
  555DOPC   C1A 6647  18.756   1.347   2.452
  555DOPC   D2A 6648  18.783   1.313   2.752
  555DOPC   C3A 6649  18.750   1.312   3.051
  555DOPC   C4A 6650  18.832   1.389   3.352
  555DOPC   C1B 6651  19.031   1.102   2.452
  555DOPC   D2B 6652  18.983   1.090   2.752
  555DOPC   C3B 6653  19.004   1.062   3.051
  555DOPC   C4B 6654  18.963   1.101   3.352
  556DOPC   NC3 6655   1.850   8.035   1.552
  556DOPC   PO4 6656   1.795   8.040   1.852
  556DOPC   GL1 6657   1.819   8.037   2.152
  556DOPC   GL2 6658   1.996   8.100   2.152
  556DOPC   C1A 6659   1.799   8.029   2.452
  556DOPC   D2A 6660   1.813   8.078   2.752
  556DOPC   C3A 6661   1.794   8.015   3.051
  556DOPC   C4A 6662   1.843   8.070   3.352
  556DOPC   C1B 6663   2.118   8.255   2.452
  556DOPC   D2B 6664   2.122   8.192   2.752
  556DOPC   C3B 6665   2.165   8.240   3.051
  556DOPC   C4B 6666   2.112   8.258   3.352
  557DOPC   NC3 6667   2.121   2.123   1.552
  557DOPC   PO4 6668   2.143   2.094   1.852
  557DOPC   GL1 6669   2.076   2.130   2.152
  557DOPC   GL2 6670   1.988   2.004   2.152
  557DOPC   C1A 6671   2.072   2.057   2.452
  557DOPC   D2A 6672   2.110   2.047   2.752
  557DOPC   C3A 6673   2.111   2.117   3.051
  557DOPC   C4A 6674   2.130   2.124   3.352
  557DOPC   C1B 6675   1.863   1.825   2.452
  557DOPC   D2B 6676   1.863   1.821   2.752
  557DOPC   C3B 6677   1.805   1.895   3.051
  557DOPC   C4B 6678   1.871   1.891   3.352
  558DOPC   NC3 6679   0.380   9.519   1.552
  558DOPC   PO4 6680   0.388   9.448   1.852
  558DOPC   GL1 6681   0.334   9.507   2.152
  558DOPC   GL2 6682   0.390   9.671   2.152
  558DOPC   C1A 6683   0.346   9.526   2.452
  558DOPC   D2A 6684   0.334   9.487   2.752
  558DOPC   C3A 6685   0.386   9.480   3.051
  558DOPC   C4A 6686   0.389   9.491   3.352
  558DOPC   C1B 6687   0.545   9.815   2.452
  558DOPC   D2B 6688   0.467   9.832   2.752
  558DOPC   C3B 6689   0.468   9.830   3.051
  558DOPC   C4B 6690   0.522   9.880   3.352
  559DOPC   NC3 6691  14.482   9.610   1.552
  559DOPC   PO4 6692  14.504   9.643   1.852
  559DOPC   GL1 6693  14.486   9.653   2.152
  559DOPC   GL2 6694  14.234   9.708   2.152
  559DOPC   C1A 6695  14.411   9.615   2.452
  559DOPC   D2A 6696  14.468   9.629   2.752
  559DOPC   C3A 6697  14.482   9.624   3.051
  559DOPC   C4A 6698  14.454   9.622   3.352
  559DOPC   C1B 6699  14.093   9.692   2.452
  559DOPC   D2B 6700  14.151   9.659   2.752
  559DOPC   C3B 6701  14.105   9.714   3.051
  559DOPC   C4B 6702  14.123   9.664   3.352
  560DOPC   NC3 6703  18.069   2.616   1.552
  560DOPC   PO4 6704  18.024   2.541   1.852
  560DOPC   GL1 6705  18.073   2.590   2.152
  560DOPC   GL2 6706  18.083   2.740   2.152
  560DOPC   C1A 6707  18.008   2.621   2.452
  560DOPC   D2A 6708  18.084   2.617   2.752
  560DOPC   C3A 6709  18.065   2.583   3.051
  560DOPC   C4A 6710  18.064   2.585   3.352
  560DOPC   C1B 6711  18.227   2.927   2.452
  560DOPC   D2B 6712  18.169   2.890   2.752
  560DOPC   C3B 6713  18.248   2.911   3.051
  560DOPC   C4B 6714  18.181   2.931   3.352
  561DOPC   NC3 6715   6.740   6.643   1.552
  561DOPC   PO4 6716   6.757   6.660   1.852
  561DOPC   GL1 6717   6.753   6.643   2.152
  561DOPC   GL2 6718   6.581   6.547   2.152
  561DOPC   C1A 6719   6.724   6.679   2.452
  561DOPC   D2A 6720   6.700   6.640   2.752
  561DOPC   C3A 6721   6.714   6.663   3.051
  561DOPC   C4A 6722   6.767   6.707   3.352
  561DOPC   C1B 6723   6.458   6.518   2.452
  561DOPC   D2B 6724   6.468   6.473   2.752
  561DOPC   C3B 6725   6.378   6.472   3.051
  561DOPC   C4B 6726   6.446   6.558   3.352
  562DOPC   NC3 6727  13.596   1.817   1.552
  562DOPC   PO4 6728  13.560   1.808   1.852
  562DOPC   GL1 6729  13.627   1.838   2.152
  562DOPC   GL2 6730  13.462   2.006   2.152
  562DOPC   C1A 6731  13.610   1.808   2.452
  562DOPC   D2A 6732  13.590   1.764   2.752
  562DOPC   C3A 6733  13.610   1.846   3.051
  562DOPC   C4A 6734  13.618   1.810   3.352
  562DOPC   C1B 6735  13.397   2.181   2.452
  562DOPC   D2B 6736  13.460   2.178   2.752
  562DOPC   C3B 6737  13.387   2.182   3.051
  562DOPC   C4B 6738  13.420   2.178   3.352
  563DOPC   NC3 6739   5.203   9.023   1.552
  563DOPC   PO4 6740   5.145   9.003   1.852
  563DOPC   GL1 6741   5.111   8.994   2.152
  563DOPC   GL2 6742   5.011   8.925   2.152
  563DOPC   C1A 6743   5.173   9.048   2.452
  563DOPC   D2A 6744   5.196   9.051   2.752
  563DOPC   C3A 6745   5.190   8.990   3.051
  563DOPC   C4A 6746   5.171   9.074   3.352
  563DOPC   C1B 6747   4.948   8.794   2.452
  563DOPC   D2B 6748   4.941   8.725   2.752
  563DOPC   C3B 6749   4.916   8.709   3.051
  563DOPC   C4B 6750   4.901   8.752   3.352
  564DOPC   NC3 6751  16.633   2.969   1.552
  564DOPC   PO4 6752  16.596   2.915   1.852
  564DOPC   GL1 6753  16.606   2.916   2.152
  564DOPC   GL2 6754  16.596   2.743   2.152
  564DOPC   C1A 6755  16.603   2.954   2.452
  564DOPC   D2A 6756  16.562   2.931   2.752
  564DOPC   C3A 6757  16.608   2.906   3.051
  564DOPC   C4A 6758  16.563   2.903   3.352
  564DOPC   C1B 6759  16.556   2.519   2.452
  564DOPC   D2B 6760  16.567   2.520   2.752
  564DOPC   C3B 6761  16.614   2.602   3.051
  564DOPC   C4B 6762  16.531   2.535   3.352
  565DOPC   NC3 6763  16.381   7.282   1.552
  565DOPC   PO4 6764  16.421   7.332   1.852
  565DOPC   GL1 6765  16.421   7.287   2.152
  565DOPC   GL2 6766  16.593   7.358   2.152
  565DOPC   C1A 6767  16.396   7.279   2.452
  565DOPC   D2A 6768  16.431   7.351   2.752
  565DOPC   C3A 6769  16.403   7.333   3.051
  565DOPC   C4A 6770  16.414   7.343   3.352
  565DOPC   C1B 6771  16.714   7.432   2.452
  565DOPC   D2B 6772  16.792   7.425   2.752
  565DOPC   C3B 6773  16.768   7.392   3.051
  565DOPC   C4B 6774  16.736   7.357   3.352
  566DOPC   NC3 6775   4.911   8.096   1.552
  566DOPC   PO4 6776   4.894   8.051   1.852
  566DOPC   GL1 6777   4.854   8.056   2.152
  566DOPC   GL2 6778   5.080   8.100   2.152
  566DOPC   C1A 6779   4.921   8.093   2.452
  566DOPC   D2A 6780   4.860   8.101   2.752
  566DOPC   C3A 6781   4.900   8.044   3.051
  566DOPC   C4A 6782   4.855   8.110   3.352
  566DOPC   C1B 6783   5.191   8.188   2.452
  566DOPC   D2B 6784   5.208   8.165   2.752
  566DOPC   C3B 6785   5.180   8.139   3.051
  566DOPC   C4B 6786   5.259   8.209   3.352
  567DOPC   NC3 6787  17.466   3.637   1.552
  567DOPC   PO4 6788  17.442   3.639   1.852
  567DOPC   GL1 6789  17.427   3.660   2.152
  567DOPC   GL2 6790  17.362   3.548   2.152
  567DOPC   C1A 6791  17.393   3.659   2.452
  567DOPC   D2A 6792  17.424   3.714   2.752
  567DOPC   C3A 6793  17.468   3.642   3.051
  567DOPC   C4A 6794  17.473   3.641   3.352
  567DOPC   C1B 6795  17.314   3.327   2.452
  567DOPC   D2B 6796  17.297   3.336   2.752
  567DOPC   C3B 6797  17.297   3.317   3.051
  567DOPC   C4B 6798  17.311   3.349   3.352
  568DOPC   NC3 6799   6.525   5.636   1.552
  568DOPC   PO4 6800   6.513   5.611   1.852
  568DOPC   GL1 6801   6.592   5.688   2.152
  568DOPC   GL2 6802   6.620   5.865   2.152
  568DOPC   C1A 6803   6.507   5.628   2.452
  568DOPC   D2A 6804   6.514   5.638   2.752
  568DOPC   C3A 6805   6.522   5.627   3.051
  568DOPC   C4A 6806   6.541   5.648   3.352
  568DOPC   C1B 6807   6.601   6.005   2.452
  568DOPC   D2B 6808   6.651   5.988   2.752
  568DOPC   C3B 6809   6.640   6.038   3.051
  568DOPC   C4B 6810   6.649   5.967   3.352
  569DOPC   NC3 6811   6.740   4.201   1.552
  569DOPC   PO4 6812   6.701   4.159   1.852
  569DOPC   GL1 6813   6.753   4.144   2.152
  569DOPC   GL2 6814   6.556   4.306   2.152
  569DOPC   C1A 6815   6.700   4.126   2.452
  569DOPC   D2A 6816   6.732   4.192   2.752
  569DOPC   C3A 6817   6.740   4.128   3.051
  569DOPC   C4A 6818   6.675   4.173   3.352
  569DOPC   C1B 6819   6.438   4.408   2.452
  569DOPC   D2B 6820   6.455   4.369   2.752
  569DOPC   C3B 6821   6.482   4.449   3.051
  569DOPC   C4B 6822   6.496   4.397   3.352
  570DOPC   NC3 6823   7.492   7.359   1.552
  570DOPC   PO4 6824   7.533   7.300   1.852
  570DOPC   GL1 6825   7.501   7.328   2.152
  570DOPC   GL2 6826   7.365   7.334   2.152
  570DOPC   C1A 6827   7.545   7.340   2.452
  570DOPC   D2A 6828   7.489   7.326   2.752
  570DOPC   C3A 6829   7.512   7.299   3.051
  570DOPC   C4A 6830   7.494   7.329   3.352
  570DOPC   C1B 6831   7.142   7.436   2.452
  570DOPC   D2B 6832   7.229   7.356   2.752
  570DOPC   C3B 6833   7.173   7.350   3.051
  570DOPC   C4B 6834   7.150   7.415   3.352
  571DOPC   NC3 6835  17.997   6.708   1.552
  571DOPC   PO4 6836  18.026   6.751   1.852
  571DOPC   GL1 6837  17.994   6.693   2.152
  571DOPC   GL2 6838  18.176   6.560   2.152
  571DOPC   C1A 6839  17.987   6.747   2.452
  571DOPC   D2A 6840  18.015   6.753   2.752
  571DOPC   C3A 6841  18.036   6.761   3.051
  571DOPC   C4A 6842  17.995   6.729   3.352
  571DOPC   C1B 6843  18.211   6.425   2.452
  571DOPC   D2B 6844  18.219   6.430   2.752
  571DOPC   C3B 6845  18.213   6.445   3.051
  571DOPC   C4B 6846  18.209   6.439   3.352
  572DOPC   NC3 6847  10.549   0.307   1.552
  572DOPC   PO4 6848  10.571   0.372   1.852
  572DOPC   GL1 6849  10.620   0.341   2.152
  572DOPC   GL2 6850  10.418   0.474   2.152
  572DOPC   C1A 6851  10.539   0.326   2.452
  572DOPC   D2A 6852  10.549   0.348   2.752
  572DOPC   C3A 6853  10.604   0.359   3.051
  572DOPC   C4A 6854  10.609   0.368   3.352
  572DOPC   C1B 6855  10.312   0.534   2.452
  572DOPC   D2B 6856  10.305   0.588   2.752
  572DOPC   C3B 6857  10.302   0.511   3.051
  572DOPC   C4B 6858  10.301   0.551   3.352
  573DOPC   NC3 6859   2.163   1.221   1.552
  573DOPC   PO4 6860   2.181   1.256   1.852
  573DOPC   GL1 6861   2.108   1.200   2.152
  573DOPC   GL2 6862   1.947   1.154   2.152
  573DOPC   C1A 6863   2.185   1.249   2.452
  573DOPC   D2A 6864   2.112   1.244   2.752
  573DOPC   C3A 6865   2.121   1.204   3.051
  573DOPC   C4A 6866   2.115   1.219   3.352
  573DOPC   C1B 6867   1.819   1.137   2.452
  573DOPC   D2B 6868   1.770   1.157   2.752
  573DOPC   C3B 6869   1.808   1.176   3.051
  573DOPC   C4B 6870   1.776   1.152   3.352
  574DOPC   NC3 6871  19.059   5.934   1.552
  574DOPC   PO4 6872  19.079   5.949   1.852
  574DOPC   GL1 6873  19.063   5.951   2.152
  574DOPC   GL2 6874  18.912   5.854   2.152
  574DOPC   C1A 6875  19.078   5.913   2.452
  574DOPC   D2A 6876  19.004   5.957   2.752
  574DOPC   C3A 6877  19.002   5.965   3.051
  574DOPC   C4A 6878  19.056   5.929   3.352
  574DOPC   C1B 6879  18.732   5.661   2.452
  574DOPC   D2B 6880  18.780   5.706   2.752
  574DOPC   C3B 6881  18.776   5.669   3.051
  574DOPC   C4B 6882  18.779   5.739   3.352
  575DOPC   NC3 6883  16.756   5.680   1.552
  575DOPC   PO4 6884  16.720   5.709   1.852
  575DOPC   GL1 6885  16.681   5.733   2.152
  575DOPC   GL2 6886  16.570   5.777   2.152
  575DOPC   C1A 6887  16.755   5.727   2.452
  575DOPC   D2A 6888  16.716   5.724   2.752
  575DOPC   C3A 6889  16.744   5.699   3.051
  575DOPC   C4A 6890  16.703   5.676   3.352
  575DOPC   C1B 6891  16.483   5.987   2.452
  575DOPC   D2B 6892  16.470   5.946   2.752
  575DOPC   C3B 6893  16.419   5.922   3.051
  575DOPC   C4B 6894  16.474   5.930   3.352
  576DOPC   NC3 6895   2.739   1.425   1.552
  576DOPC   PO4 6896   2.742   1.400   1.852
  576DOPC   GL1 6897   2.722   1.364   2.152
  576DOPC   GL2 6898   2.749   1.232   2.152
  576DOPC   C1A 6899   2.737   1.378   2.452
  576DOPC   D2A 6900   2.719   1.427   2.752
  576DOPC   C3A 6901   2.771   1.386   3.051
  576DOPC   C4A 6902   2.680   1.388   3.352
  576DOPC   C1B 6903   2.738   1.073   2.452
  576DOPC   D2B 6904   2.786   0.997   2.752
  576DOPC   C3B 6905   2.804   1.038   3.051
  576DOPC   C4B 6906   2.727   0.984   3.352
  577DOPC   NC3 6907  18.333   8.862   1.552
  577DOPC   PO4 6908  18.282   8.828   1.852
  577DOPC   GL1 6909  18.289   8.817   2.152
  577DOPC   GL2 6910  18.090   8.945   2.152
  577DOPC   C1A 6911  18.259   8.812   2.452
  577DOPC   D2A 6912  18.335   8.813   2.752
  577DOPC   C3A 6913  18.313   8.883   3.051
  577DOPC   C4A 6914  18.267   8.890   3.352
  577DOPC   C1B 6915  17.952   8.924   2.452
  577DOPC   D2B 6916  17.935   8.958   2.752
  577DOPC   C3B 6917  17.959   8.914   3.051
  577DOPC   C4B 6918  17.938   8.982   3.352
  578DOPC   NC3 6919  17.225   1.863   1.552
  578DOPC   PO4 6920  17.263   1.844   1.852
  578DOPC   GL1 6921  17.182   1.888   2.152
  578DOPC   GL2 6922  17.362   2.020   2.152
  578DOPC   C1A 6923  17.222   1.830   2.452
  578DOPC   D2A 6924  17.217   1.914   2.752
  578DOPC   C3A 6925  17.211   1.909   3.051
  578DOPC   C4A 6926  17.254   1.844   3.352
  578DOPC   C1B 6927  17.508   2.115   2.452
  578DOPC   D2B 6928  17.537   2.081   2.752
  578DOPC   C3B 6929  17.469   2.060   3.051
  578DOPC   C4B 6930  17.463   2.049   3.352
  579DOPC   NC3 6931   4.998   1.068   1.552
  579DOPC   PO4 6932   5.008   1.003   1.852
  579DOPC   GL1 6933   4.931   1.069   2.152
  579DOPC   GL2 6934   5.006   1.165   2.152
  579DOPC   C1A 6935   4.919   1.029   2.452
  579DOPC   D2A 6936   4.955   1.028   2.752
  579DOPC   C3A 6937   4.944   1.082   3.051
  579DOPC   C4A 6938   4.924   1.023   3.352
  579DOPC   C1B 6939   5.171   1.333   2.452
  579DOPC   D2B 6940   5.150   1.377   2.752
  579DOPC   C3B 6941   5.163   1.372   3.051
  579DOPC   C4B 6942   5.174   1.345   3.352
  580DOPC   NC3 6943   2.684   2.526   1.552
  580DOPC   PO4 6944   2.686   2.572   1.852
  580DOPC   GL1 6945   2.707   2.573   2.152
  580DOPC   GL2 6946   2.746   2.758   2.152
  580DOPC   C1A 6947   2.697   2.581   2.452
  580DOPC   D2A 6948   2.673   2.622   2.752
  580DOPC   C3A 6949   2.650   2.590   3.051
  580DOPC   C4A 6950   2.717   2.528   3.352
  580DOPC   C1B 6951   2.815   2.871   2.452
  580DOPC   D2B 6952   2.838   2.914   2.752
  580DOPC   C3B 6953   2.766   2.879   3.051
  580DOPC   C4B 6954   2.794   2.895   3.352
  581DOPC   NC3 6955   1.167   3.650   1.552
  581DOPC   PO4 6956   1.140   3.656   1.852
  581DOPC   GL1 6957   1.158   3.632   2.152
  581DOPC   GL2 6958   1.253   3.545   2.152
  581DOPC   C1A 6959   1.139   3.675   2.452
  581DOPC   D2A 6960   1.120   3.700   2.752
  581DOPC   C3A 6961   1.124   3.642   3.051
  581DOPC   C4A 6962   1.106   3.711   3.352
  581DOPC   C1B 6963   1.299   3.344   2.452
  581DOPC   D2B 6964   1.267   3.341   2.752
  581DOPC   C3B 6965   1.251   3.333   3.051
  581DOPC   C4B 6966   1.301   3.304   3.352
  582DOPC   NC3 6967   7.190   5.679   1.552
  582DOPC   PO4 6968   7.193   5.662   1.852
  582DOPC   GL1 6969   7.197   5.679   2.152
  582DOPC   GL2 6970   7.370   5.845   2.152
  582DOPC   C1A 6971   7.225   5.699   2.452
  582DOPC   D2A 6972   7.175   5.660   2.752
  582DOPC   C3A 6973   7.253   5.704   3.051
  582DOPC   C4A 6974   7.226   5.733   3.352
  582DOPC   C1B 6975   7.531   5.947   2.452
  582DOPC   D2B 6976   7.480   5.925   2.752
  582DOPC   C3B 6977   7.508   5.956   3.051
  582DOPC   C4B 6978   7.512   5.901   3.352
  583DOPC   NC3 6979   7.422   7.974   1.552
  583DOPC   PO4 6980   7.422   7.957   1.852
  583DOPC   GL1 6981   7.381   7.974   2.152
  583DOPC   GL2 6982   7.394   8.104   2.152
  583DOPC   C1A 6983   7.374   7.949   2.452
  583DOPC   D2A 6984   7.365   7.968   2.752
  583DOPC   C3A 6985   7.381   7.948   3.051
  583DOPC   C4A 6986   7.402   7.996   3.352
  583DOPC   C1B 6987   7.347   8.331   2.452
  583DOPC   D2B 6988   7.296   8.258   2.752
  583DOPC   C3B 6989   7.315   8.297   3.051
  583DOPC   C4B 6990   7.314   8.258   3.352
  584DOPC   NC3 6991  10.505   2.609   1.552
  584DOPC   PO4 6992  10.561   2.595   1.852
  584DOPC   GL1 6993  10.549   2.572   2.152
  584DOPC   GL2 6994  10.478   2.763   2.152
  584DOPC   C1A 6995  10.567   2.637   2.452
  584DOPC   D2A 6996  10.578   2.645   2.752
  584DOPC   C3A 6997  10.586   2.646   3.051
  584DOPC   C4A 6998  10.575   2.566   3.352
  584DOPC   C1B 6999  10.302   2.912   2.452
  584DOPC   D2B 7000  10.283   2.854   2.752
  584DOPC   C3B 7001  10.312   2.895   3.051
  584DOPC   C4B 7002  10.309   2.882   3.352
  585DOPC   NC3 7003   0.594   1.964   1.552
  585DOPC   PO4 7004   0.601   1.965   1.852
  585DOPC   GL1 7005   0.585   1.947   2.152
  585DOPC   GL2 7006   0.460   1.980   2.152
  585DOPC   C1A 7007   0.582   2.024   2.452
  585DOPC   D2A 7008   0.598   1.980   2.752
  585DOPC   C3A 7009   0.650   2.021   3.051
  585DOPC   C4A 7010   0.562   2.010   3.352
  585DOPC   C1B 7011   0.234   1.979   2.452
  585DOPC   D2B 7012   0.267   1.946   2.752
  585DOPC   C3B 7013   0.266   1.932   3.051
  585DOPC   C4B 7014   0.285   1.944   3.352
  586DOPC   NC3 7015   5.210   3.477   1.552
  586DOPC   PO4 7016   5.237   3.427   1.852
  586DOPC   GL1 7017   5.244   3.446   2.152
  586DOPC   GL2 7018   5.078   3.536   2.152
  586DOPC   C1A 7019   5.215   3.485   2.452
  586DOPC   D2A 7020   5.175   3.433   2.752
  586DOPC   C3A 7021   5.213   3.504   3.051
  586DOPC   C4A 7022   5.188   3.510   3.352
  586DOPC   C1B 7023   4.876   3.585   2.452
  586DOPC   D2B 7024   4.926   3.534   2.752
  586DOPC   C3B 7025   4.863   3.568   3.051
  586DOPC   C4B 7026   4.857   3.583   3.352
  587DOPC   NC3 7027  19.839   5.785   1.552
  587DOPC   PO4 7028  19.830   5.805   1.852
  587DOPC   GL1 7029  19.853   5.828   2.152
  587DOPC   GL2 7030  19.692   5.835   2.152
  587DOPC   C1A 7031  19.803   5.790   2.452
  587DOPC   D2A 7032  19.819   5.839   2.752
  587DOPC   C3A 7033  19.844   5.771   3.051
  587DOPC   C4A 7034  19.797   5.777   3.352
  587DOPC   C1B 7035  19.525   5.866   2.452
  587DOPC   D2B 7036  19.457   5.777   2.752
  587DOPC   C3B 7037  19.464   5.798   3.051
  587DOPC   C4B 7038  19.442   5.832   3.352
  588DOPC   NC3 7039   4.294   2.923   1.552
  588DOPC   PO4 7040   4.319   2.914   1.852
  588DOPC   GL1 7041   4.354   2.910   2.152
  588DOPC   GL2 7042   4.241   2.729   2.152
  588DOPC   C1A 7043   4.305   2.964   2.452
  588DOPC   D2A 7044   4.348   2.897   2.752
  588DOPC   C3A 7045   4.313   2.944   3.051
  588DOPC   C4A 7046   4.323   2.935   3.352
  588DOPC   C1B 7047   4.211   2.545   2.452
  588DOPC   D2B 7048   4.232   2.600   2.752
  588DOPC   C3B 7049   4.256   2.574   3.051
  588DOPC   C4B 7050   4.267   2.599   3.352
  589DOPC   NC3 7051  19.046   2.730   1.552
  589DOPC   PO4 7052  19.034   2.782   1.852
  589DOPC   GL1 7053  19.068   2.709   2.152
  589DOPC   GL2 7054  18.874   2.723   2.152
  589DOPC   C1A 7055  19.049   2.749   2.452
  589DOPC   D2A 7056  19.075   2.775   2.752
  589DOPC   C3A 7057  19.025   2.741   3.051
  589DOPC   C4A 7058  19.090   2.793   3.352
  589DOPC   C1B 7059  18.720   2.704   2.452
  589DOPC   D2B 7060  18.715   2.721   2.752
  589DOPC   C3B 7061  18.716   2.762   3.051
  589DOPC   C4B 7062  18.668   2.731   3.352
  590DOPC   NC3 7063  17.909   3.517   1.552
  590DOPC   PO4 7064  17.933   3.532   1.852
  590DOPC   GL1 7065  17.982   3.498   2.152
  590DOPC   GL2 7066  18.109   3.520   2.152
  590DOPC   C1A 7067  17.971   3.486   2.452
  590DOPC   D2A 7068  17.918   3.527   2.752
  590DOPC   C3A 7069  17.943   3.556   3.051
  590DOPC   C4A 7070  17.941   3.487   3.352
  590DOPC   C1B 7071  18.290   3.521   2.452
  590DOPC   D2B 7072  18.285   3.517   2.752
  590DOPC   C3B 7073  18.308   3.463   3.051
  590DOPC   C4B 7074  18.274   3.551   3.352
  591DOPC   NC3 7075  14.304   3.330   1.552
  591DOPC   PO4 7076  14.229   3.301   1.852
  591DOPC   GL1 7077  14.294   3.290   2.152
  591DOPC   GL2 7078  14.295   3.529   2.152
  591DOPC   C1A 7079  14.254   3.380   2.452
  591DOPC   D2A 7080  14.300   3.306   2.752
  591DOPC   C3A 7081  14.306   3.378   3.051
  591DOPC   C4A 7082  14.251   3.306   3.352
  591DOPC   C1B 7083  14.237   3.729   2.452
  591DOPC   D2B 7084  14.301   3.641   2.752
  591DOPC   C3B 7085  14.294   3.673   3.051
  591DOPC   C4B 7086  14.293   3.641   3.352
  592DOPC   NC3 7087   8.857   8.722   1.552
  592DOPC   PO4 7088   8.777   8.744   1.852
  592DOPC   GL1 7089   8.820   8.742   2.152
  592DOPC   GL2 7090   8.902   8.940   2.152
  592DOPC   C1A 7091   8.817   8.785   2.452
  592DOPC   D2A 7092   8.769   8.753   2.752
  592DOPC   C3A 7093   8.849   8.706   3.051
  592DOPC   C4A 7094   8.790   8.722   3.352
  592DOPC   C1B 7095   8.990   9.092   2.452
  592DOPC   D2B 7096   8.954   9.033   2.752
  592DOPC   C3B 7097   8.957   9.086   3.051
  592DOPC   C4B 7098   8.991   9.009   3.352
  593DOPC   NC3 7099  11.345   8.076   1.552
  593DOPC   PO4 7100  11.329   8.038   1.852
  593DOPC   GL1 7101  11.395   8.054   2.152
  593DOPC   GL2 7102  11.168   8.142   2.152
  593DOPC   C1A 7103  11.418   8.110   2.452
  593DOPC   D2A 7104  11.397   8.070   2.752
  593DOPC   C3A 7105  11.342   8.071   3.051
  593DOPC   C4A 7106  11.330   8.105   3.352
  593DOPC   C1B 7107  11.076   8.156   2.452
  593DOPC   D2B 7108  11.013   8.211   2.752
  593DOPC   C3B 7109  11.043   8.120   3.051
  593DOPC   C4B 7110  10.989   8.159   3.352
  594DOPC   NC3 7111  17.160   9.746   1.552
  594DOPC   PO4 7112  17.154   9.769   1.852
  594DOPC   GL1 7113  17.156   9.751   2.152
  594DOPC   GL2 7114  17.321   9.679   2.152
  594DOPC   C1A 7115  17.161   9.696   2.452
  594DOPC   D2A 7116  17.212   9.790   2.752
  594DOPC   C3A 7117  17.178   9.699   3.051
  594DOPC   C4A 7118  17.227   9.784   3.352
  594DOPC   C1B 7119  17.512   9.623   2.452
  594DOPC   D2B 7120  17.493   9.596   2.752
  594DOPC   C3B 7121  17.529   9.562   3.051
  594DOPC   C4B 7122  17.548   9.575   3.352
  595DOPC   NC3 7123   0.326   7.218   1.552
  595DOPC   PO4 7124   0.307   7.263   1.852
  595DOPC   GL1 7125   0.275   7.283   2.152
  595DOPC   GL2 7126   0.483   7.364   2.152
  595DOPC   C1A 7127   0.322   7.218   2.452
  595DOPC   D2A 7128   0.304   7.241   2.752
  595DOPC   C3A 7129   0.338   7.243   3.051
  595DOPC   C4A 7130   0.258   7.228   3.352
  595DOPC   C1B 7131   0.589   7.501   2.452
  595DOPC   D2B 7132   0.620   7.461   2.752
  595DOPC   C3B 7133   0.591   7.486   3.051
  595DOPC   C4B 7134   0.554   7.442   3.352
  596DOPC   NC3 7135   9.562   8.819   1.552
  596DOPC   PO4 7136   9.565   8.783   1.852
  596DOPC   GL1 7137   9.556   8.767   2.152
  596DOPC   GL2 7138   9.620   8.919   2.152
  596DOPC   C1A 7139   9.483   8.797   2.452
  596DOPC   D2A 7140   9.512   8.803   2.752
  596DOPC   C3A 7141   9.545   8.800   3.051
  596DOPC   C4A 7142   9.552   8.752   3.352
  596DOPC   C1B 7143   9.826   9.023   2.452
  596DOPC   D2B 7144   9.840   8.999   2.752
  596DOPC   C3B 7145   9.818   8.966   3.051
  596DOPC   C4B 7146   9.850   8.970   3.352
  597DOPC   NC3 7147  12.576   1.209   1.552
  597DOPC   PO4 7148  12.531   1.302   1.852
  597DOPC   GL1 7149  12.619   1.252   2.152
  597DOPC   GL2 7150  12.766   1.194   2.152
  597DOPC   C1A 7151  12.548   1.248   2.452
  597DOPC   D2A 7152  12.574   1.308   2.752
  597DOPC   C3A 7153  12.548   1.218   3.051
  597DOPC   C4A 7154  12.617   1.255   3.352
  597DOPC   C1B 7155  12.934   1.141   2.452
  597DOPC   D2B 7156  12.863   1.105   2.752
  597DOPC   C3B 7157  12.879   1.131   3.051
  597DOPC   C4B 7158  12.919   1.100   3.352
  598DOPC   NC3 7159  15.215   8.815   1.552
  598DOPC   PO4 7160  15.200   8.747   1.852
  598DOPC   GL1 7161  15.229   8.789   2.152
  598DOPC   GL2 7162  15.085   8.876   2.152
  598DOPC   C1A 7163  15.159   8.824   2.452
  598DOPC   D2A 7164  15.180   8.794   2.752
  598DOPC   C3A 7165  15.216   8.805   3.051
  598DOPC   C4A 7166  15.193   8.807   3.352
  598DOPC   C1B 7167  14.894   9.004   2.452
  598DOPC   D2B 7168  14.907   8.971   2.752
  598DOPC   C3B 7169  14.869   9.044   3.051
  598DOPC   C4B 7170  14.912   8.996   3.352
  599DOPC   NC3 7171   3.387   0.451   1.552
  599DOPC   PO4 7172   3.365   0.526   1.852
  599DOPC   GL1 7173   3.389   0.448   2.152
  599DOPC   GL2 7174   3.561   0.441   2.152
  599DOPC   C1A 7175   3.349   0.473   2.452
  599DOPC   D2A 7176   3.343   0.465   2.752
  599DOPC   C3A 7177   3.362   0.436   3.051
  599DOPC   C4A 7178   3.295   0.455   3.352
  599DOPC   C1B 7179   3.727   0.352   2.452
  599DOPC   D2B 7180   3.675   0.342   2.752
  599DOPC   C3B 7181   3.674   0.362   3.051
  599DOPC   C4B 7182   3.698   0.408   3.352
  600DOPC   NC3 7183   4.417   8.097   1.552
  600DOPC   PO4 7184   4.462   8.138   1.852
  600DOPC   GL1 7185   4.449   8.110   2.152
  600DOPC   GL2 7186   4.321   8.124   2.152
  600DOPC   C1A 7187   4.470   8.164   2.452
  600DOPC   D2A 7188   4.429   8.163   2.752
  600DOPC   C3A 7189   4.454   8.085   3.051
  600DOPC   C4A 7190   4.459   8.132   3.352
  600DOPC   C1B 7191   4.150   8.154   2.452
  600DOPC   D2B 7192   4.098   8.099   2.752
  600DOPC   C3B 7193   4.127   8.088   3.051
  600DOPC   C4B 7194   4.082   8.128   3.352
  601DOPC   NC3 7195   7.332   3.711   1.552
  601DOPC   PO4 7196   7.360   3.734   1.852
  601DOPC   GL1 7197   7.396   3.714   2.152
  601DOPC   GL2 7198   7.325   3.535   2.152
  601DOPC   C1A 7199   7.388   3.659   2.452
  601DOPC   D2A 7200   7.428   3.697   2.752
  601DOPC   C3A 7201   7.346   3.644   3.051
  601DOPC   C4A 7202   7.399   3.680   3.352
  601DOPC   C1B 7203   7.330   3.365   2.452
  601DOPC   D2B 7204   7.303   3.362   2.752
  601DOPC   C3B 7205   7.371   3.358   3.051
  601DOPC   C4B 7206   7.353   3.339   3.352
  602DOPC   NC3 7207  13.391   0.574   1.552
  602DOPC   PO4 7208  13.448   0.572   1.852
  602DOPC   GL1 7209  13.447   0.602   2.152
  602DOPC   GL2 7210  13.466   0.455   2.152
  602DOPC   C1A 7211  13.404   0.538   2.452
  602DOPC   D2A 7212  13.422   0.560   2.752
  602DOPC   C3A 7213  13.380   0.623   3.051
  602DOPC   C4A 7214  13.422   0.575   3.352
  602DOPC   C1B 7215  13.592   0.295   2.452
  602DOPC   D2B 7216  13.628   0.330   2.752
  602DOPC   C3B 7217  13.635   0.334   3.051
  602DOPC   C4B 7218  13.583   0.246   3.352
  603DOPC   NC3 7219   3.666   1.952   1.552
  603DOPC   PO4 7220   3.693   1.976   1.852
  603DOPC   GL1 7221   3.652   1.940   2.152
  603DOPC   GL2 7222   3.495   1.929   2.152
  603DOPC   C1A 7223   3.695   1.968   2.452
  603DOPC   D2A 7224   3.704   1.936   2.752
  603DOPC   C3A 7225   3.658   1.927   3.051
  603DOPC   C4A 7226   3.727   1.911   3.352
  603DOPC   C1B 7227   3.301   2.012   2.452
  603DOPC   D2B 7228   3.320   2.022   2.752
  603DOPC   C3B 7229   3.349   1.988   3.051
  603DOPC   C4B 7230   3.320   2.036   3.352
  604DOPC   NC3 7231  12.833   0.579   1.552
  604DOPC   PO4 7232  12.803   0.549   1.852
  604DOPC   GL1 7233  12.823   0.573   2.152
  604DOPC   GL2 7234  12.761   0.484   2.152
  604DOPC   C1A 7235  12.863   0.561   2.452
  604DOPC   D2A 7236  12.806   0.546   2.752
  604DOPC   C3A 7237  12.784   0.625   3.051
  604DOPC   C4A 7238  12.796   0.631   3.352
  604DOPC   C1B 7239  12.647   0.317   2.452
  604DOPC   D2B 7240  12.634   0.239   2.752
  604DOPC   C3B 7241  12.713   0.276   3.051
  604DOPC   C4B 7242  12.660   0.234   3.352
  605DOPC   NC3 7243  14.120   6.747   1.552
  605DOPC   PO4 7244  14.180   6.692   1.852
  605DOPC   GL1 7245  14.151   6.697   2.152
  605DOPC   GL2 7246  14.327   6.611   2.152
  605DOPC   C1A 7247  14.127   6.734   2.452
  605DOPC   D2A 7248  14.206   6.714   2.752
  605DOPC   C3A 7249  14.152   6.762   3.051
  605DOPC   C4A 7250  14.185   6.689   3.352
  605DOPC   C1B 7251  14.411   6.471   2.452
  605DOPC   D2B 7252  14.451   6.427   2.752
  605DOPC   C3B 7253  14.399   6.451   3.051
  605DOPC   C4B 7254  14.372   6.428   3.352
  606DOPC   NC3 7255  18.137   5.255   1.552
  606DOPC   PO4 7256  18.150   5.178   1.852
  606DOPC   GL1 7257  18.183   5.209   2.152
  606DOPC   GL2 7258  18.098   5.073   2.152
  606DOPC   C1A 7259  18.137   5.174   2.452
  606DOPC   D2A 7260  18.134   5.248   2.752
  606DOPC   C3A 7261  18.225   5.210   3.051
  606DOPC   C4A 7262  18.213   5.261   3.352
  606DOPC   C1B 7263  18.075   4.860   2.452
  606DOPC   D2B 7264  18.095   4.895   2.752
  606DOPC   C3B 7265  18.089   4.834   3.051
  606DOPC   C4B 7266  18.081   4.831   3.352
  607DOPC   NC3 7267   5.654   9.814   1.552
  607DOPC   PO4 7268   5.714   9.756   1.852
  607DOPC   GL1 7269   5.699   9.814   2.152
  607DOPC   GL2 7270   5.840   9.674   2.152
  607DOPC   C1A 7271   5.732   9.790   2.452
  607DOPC   D2A 7272   5.708   9.809   2.752
  607DOPC   C3A 7273   5.730   9.772   3.051
  607DOPC   C4A 7274   5.716   9.823   3.352
  607DOPC   C1B 7275   5.953   9.507   2.452
  607DOPC   D2B 7276   5.938   9.565   2.752
  607DOPC   C3B 7277   5.959   9.510   3.051
  607DOPC   C4B 7278   5.919   9.514   3.352
  608DOPC   NC3 7279   5.819   4.462   1.552
  608DOPC   PO4 7280   5.840   4.507   1.852
  608DOPC   GL1 7281   5.808   4.471   2.152
  608DOPC   GL2 7282   5.798   4.319   2.152
  608DOPC   C1A 7283   5.864   4.439   2.452
  608DOPC   D2A 7284   5.843   4.495   2.752
  608DOPC   C3A 7285   5.796   4.483   3.051
  608DOPC   C4A 7286   5.840   4.465   3.352
  608DOPC   C1B 7287   5.844   4.057   2.452
  608DOPC   D2B 7288   5.777   4.118   2.752
  608DOPC   C3B 7289   5.843   4.129   3.051
  608DOPC   C4B 7290   5.772   4.063   3.352
  609DOPC   NC3 7291   0.381   5.262   1.552
  609DOPC   PO4 7292   0.342   5.221   1.852
  609DOPC   GL1 7293   0.362   5.165   2.152
  609DOPC   GL2 7294   0.410   5.021   2.152
  609DOPC   C1A 7295   0.368   5.219   2.452
  609DOPC   D2A 7296   0.342   5.245   2.752
  609DOPC   C3A 7297   0.362   5.252   3.051
  609DOPC   C4A 7298   0.411   5.169   3.352
  609DOPC   C1B 7299   0.461   4.883   2.452
  609DOPC   D2B 7300   0.482   4.901   2.752
  609DOPC   C3B 7301   0.524   4.837   3.051
  609DOPC   C4B 7302   0.490   4.902   3.352
  610DOPC   NC3 7303  11.253   1.023   1.552
  610DOPC   PO4 7304  11.278   1.027   1.852
  610DOPC   GL1 7305  11.222   1.082   2.152
  610DOPC   GL2 7306  11.223   1.247   2.152
  610DOPC   C1A 7307  11.307   0.998   2.452
  610DOPC   D2A 7308  11.255   1.009   2.752
  610DOPC   C3A 7309  11.309   1.018   3.051
  610DOPC   C4A 7310  11.241   1.025   3.352
  610DOPC   C1B 7311  11.116   1.390   2.452
  610DOPC   D2B 7312  11.138   1.356   2.752
  610DOPC   C3B 7313  11.166   1.362   3.051
  610DOPC   C4B 7314  11.155   1.349   3.352
  611DOPC   NC3 7315   2.108   5.226   1.552
  611DOPC   PO4 7316   2.140   5.209   1.852
  611DOPC   GL1 7317   2.131   5.149   2.152
  611DOPC   GL2 7318   1.979   5.001   2.152
  611DOPC   C1A 7319   2.122   5.222   2.452
  611DOPC   D2A 7320   2.079   5.194   2.752
  611DOPC   C3A 7321   2.118   5.230   3.051
  611DOPC   C4A 7322   2.135   5.179   3.352
  611DOPC   C1B 7323   1.837   4.897   2.452
  611DOPC   D2B 7324   1.887   4.956   2.752
  611DOPC   C3B 7325   1.883   4.879   3.051
  611DOPC   C4B 7326   1.847   4.935   3.352
  612DOPC   NC3 7327  14.403   7.227   1.552
  612DOPC   PO4 7328  14.436   7.260   1.852
  612DOPC   GL1 7329  14.447   7.223   2.152
  612DOPC   GL2 7330  14.243   7.358   2.152
  612DOPC   C1A 7331  14.424   7.268   2.452
  612DOPC   D2A 7332  14.457   7.220   2.752
  612DOPC   C3A 7333  14.450   7.275   3.051
  612DOPC   C4A 7334  14.380   7.276   3.352
  612DOPC   C1B 7335  14.164   7.436   2.452
  612DOPC   D2B 7336  14.137   7.500   2.752
  612DOPC   C3B 7337  14.088   7.430   3.051
  612DOPC   C4B 7338  14.096   7.478   3.352
  613DOPC   NC3 7339   1.109   6.420   1.552
  613DOPC   PO4 7340   1.113   6.444   1.852
  613DOPC   GL1 7341   1.195   6.403   2.152
  613DOPC   GL2 7342   1.222   6.630   2.152
  613DOPC   C1A 7343   1.198   6.461   2.452
  613DOPC   D2A 7344   1.190   6.429   2.752
  613DOPC   C3A 7345   1.121   6.406   3.051
  613DOPC   C4A 7346   1.113   6.420   3.352
  613DOPC   C1B 7347   1.297   6.739   2.452
  613DOPC   D2B 7348   1.239   6.764   2.752
  613DOPC   C3B 7349   1.262   6.724   3.051
  613DOPC   C4B 7350   1.291   6.741   3.352
  614DOPC   NC3 7351  11.327   9.548   1.552
  614DOPC   PO4 7352  11.285   9.499   1.852
  614DOPC   GL1 7353  11.319   9.461   2.152
  614DOPC   GL2 7354  11.158   9.665   2.152
  614DOPC   C1A 7355  11.289   9.552   2.452
  614DOPC   D2A 7356  11.255   9.554   2.752
  614DOPC   C3A 7357  11.290   9.473   3.051
  614DOPC   C4A 7358  11.259   9.549   3.352
  614DOPC   C1B 7359  11.087   9.845   2.452
  614DOPC   D2B 7360  11.086   9.782   2.752
  614DOPC   C3B 7361  11.155   9.802   3.051
  614DOPC   C4B 7362  11.149   9.849   3.352
  615DOPC   NC3 7363   8.109   7.182   1.552
  615DOPC   PO4 7364   8.093   7.189   1.852
  615DOPC   GL1 7365   8.090   7.180   2.152
  615DOPC   GL2 7366   8.118   7.366   2.152
  615DOPC   C1A 7367   8.104   7.165   2.452
  615DOPC   D2A 7368   8.097   7.209   2.752
  615DOPC   C3A 7369   8.149   7.143   3.051
  615DOPC   C4A 7370   8.093   7.216   3.352
  615DOPC   C1B 7371   8.149   7.522   2.452
  615DOPC   D2B 7372   8.150   7.543   2.752
  615DOPC   C3B 7373   8.097   7.530   3.051
  615DOPC   C4B 7374   8.179   7.536   3.352
  616DOPC   NC3 7375  10.530   5.683   1.552
  616DOPC   PO4 7376  10.518   5.632   1.852
  616DOPC   GL1 7377  10.510   5.651   2.152
  616DOPC   GL2 7378  10.395   5.837   2.152
  616DOPC   C1A 7379  10.486   5.640   2.452
  616DOPC   D2A 7380  10.514   5.643   2.752
  616DOPC   C3A 7381  10.526   5.639   3.051
  616DOPC   C4A 7382  10.543   5.635   3.352
  616DOPC   C1B 7383  10.352   5.990   2.452
  616DOPC   D2B 7384  10.399   6.027   2.752
  616DOPC   C3B 7385  10.355   5.937   3.051
  616DOPC   C4B 7386  10.385   5.959   3.352
  617DOPC   NC3 7387  15.617   2.739   1.552
  617DOPC   PO4 7388  15.610   2.688   1.852
  617DOPC   GL1 7389  15.637   2.706   2.152
  617DOPC   GL2 7390  15.777   2.723   2.152
  617DOPC   C1A 7391  15.640   2.721   2.452
  617DOPC   D2A 7392  15.607   2.747   2.752
  617DOPC   C3A 7393  15.625   2.700   3.051
  617DOPC   C4A 7394  15.601   2.738   3.352
  617DOPC   C1B 7395  16.016   2.742   2.452
  617DOPC   D2B 7396  15.982   2.737   2.752
  617DOPC   C3B 7397  16.028   2.748   3.051
  617DOPC   C4B 7398  16.038   2.788   3.352
  618DOPC   NC3 7399   8.724   4.926   1.552
  618DOPC   PO4 7400   8.723   4.899   1.852
  618DOPC   GL1 7401   8.796   4.903   2.152
  618DOPC   GL2 7402   8.938   5.033   2.152
  618DOPC   C1A 7403   8.728   4.917   2.452
  618DOPC   D2A 7404   8.744   4.946   2.752
  618DOPC   C3A 7405   8.773   4.982   3.051
  618DOPC   C4A 7406   8.786   4.912   3.352
  618DOPC   C1B 7407   9.025   5.131   2.452
  618DOPC   D2B 7408   9.058   5.164   2.752
  618DOPC   C3B 7409   8.983   5.154   3.051
  618DOPC   C4B 7410   9.012   5.214   3.352
  619DOPC   NC3 7411  10.463   7.975   1.552
  619DOPC   PO4 7412  10.512   7.946   1.852
  619DOPC   GL1 7413  10.508   7.928   2.152
  619DOPC   GL2 7414  10.388   8.125   2.152
  619DOPC   C1A 7415  10.500   7.974   2.452
  619DOPC   D2A 7416  10.458   7.974   2.752
  619DOPC   C3A 7417  10.470   7.937   3.051
  619DOPC   C4A 7418  10.452   7.915   3.352
  619DOPC   C1B 7419  10.373   8.287   2.452
  619DOPC   D2B 7420  10.322   8.330   2.752
  619DOPC   C3B 7421  10.372   8.342   3.051
  619DOPC   C4B 7422  10.341   8.291   3.352
  620DOPC   NC3 7423  19.004   3.639   1.552
  620DOPC   PO4 7424  19.038   3.683   1.852
  620DOPC   GL1 7425  19.018   3.641   2.152
  620DOPC   GL2 7426  18.849   3.548   2.152
  620DOPC   C1A 7427  19.054   3.675   2.452
  620DOPC   D2A 7428  18.987   3.651   2.752
  620DOPC   C3A 7429  19.028   3.678   3.051
  620DOPC   C4A 7430  18.992   3.681   3.352
  620DOPC   C1B 7431  18.758   3.379   2.452
  620DOPC   D2B 7432  18.762   3.424   2.752
  620DOPC   C3B 7433  18.756   3.395   3.051
  620DOPC   C4B 7434  18.793   3.397   3.352
  621DOPC   NC3 7435  15.640   1.284   1.552
  621DOPC   PO4 7436  15.625   1.283   1.852
  621DOPC   GL1 7437  15.660   1.255   2.152
  621DOPC   GL2 7438  15.776   1.207   2.152
  621DOPC   C1A 7439  15.707   1.320   2.452
  621DOPC   D2A 7440  15.621   1.322   2.752
  621DOPC   C3A 7441  15.629   1.344   3.051
  621DOPC   C4A 7442  15.643   1.285   3.352
  621DOPC   C1B 7443  15.989   1.151   2.452
  621DOPC   D2B 7444  15.959   1.082   2.752
  621DOPC   C3B 7445  15.939   1.067   3.051
  621DOPC   C4B 7446  16.009   1.103   3.352
  622DOPC   NC3 7447   5.875   9.031   1.552
  622DOPC   PO4 7448   5.861   9.104   1.852
  622DOPC   GL1 7449   5.799   9.064   2.152
  622DOPC   GL2 7450   5.813   8.919   2.152
  622DOPC   C1A 7451   5.826   9.029   2.452
  622DOPC   D2A 7452   5.821   9.044   2.752
  622DOPC   C3A 7453   5.783   9.036   3.051
  622DOPC   C4A 7454   5.844   9.103   3.352
  622DOPC   C1B 7455   5.781   8.717   2.452
  622DOPC   D2B 7456   5.830   8.687   2.752
  622DOPC   C3B 7457   5.774   8.747   3.051
  622DOPC   C4B 7458   5.808   8.757   3.352
  623DOPC   NC3 7459  12.005   8.720   1.552
  623DOPC   PO4 7460  11.990   8.734   1.852
  623DOPC   GL1 7461  12.023   8.726   2.152
  623DOPC   GL2 7462  11.930   8.855   2.152
  623DOPC   C1A 7463  11.954   8.745   2.452
  623DOPC   D2A 7464  11.994   8.701   2.752
  623DOPC   C3A 7465  11.986   8.697   3.051
  623DOPC   C4A 7466  11.949   8.670   3.352
  623DOPC   C1B 7467  11.991   9.113   2.452
  623DOPC   D2B 7468  11.995   9.100   2.752
  623DOPC   C3B 7469  11.928   9.111   3.051
  623DOPC   C4B 7470  11.960   9.039   3.352
  624DOPC   NC3 7471   8.998   3.388   1.552
  624DOPC   PO4 7472   8.942   3.339   1.852
  624DOPC   GL1 7473   9.032   3.357   2.152
  624DOPC   GL2 7474   8.908   3.490   2.152
  624DOPC   C1A 7475   8.995   3.407   2.452
  624DOPC   D2A 7476   8.991   3.383   2.752
  624DOPC   C3A 7477   9.006   3.352   3.051
  624DOPC   C4A 7478   8.973   3.387   3.352
  624DOPC   C1B 7479   8.766   3.685   2.452
  624DOPC   D2B 7480   8.774   3.632   2.752
  624DOPC   C3B 7481   8.798   3.676   3.051
  624DOPC   C4B 7482   8.773   3.693   3.352
  625DOPC   NC3 7483  14.378   0.591   1.552
  625DOPC   PO4 7484  14.433   0.544   1.852
  625DOPC   GL1 7485  14.443   0.583   2.152
  625DOPC   GL2 7486  14.272   0.430   2.152
  625DOPC   C1A 7487  14.444   0.619   2.452
  625DOPC   D2A 7488  14.427   0.570   2.752
  625DOPC   C3A 7489  14.356   0.589   3.051
  625DOPC   C4A 7490  14.371   0.547   3.352
  625DOPC   C1B 7491  14.202   0.338   2.452
  625DOPC   D2B 7492  14.131   0.259   2.752
  625DOPC   C3B 7493  14.197   0.318   3.051
  625DOPC   C4B 7494  14.207   0.256   3.352
  626DOPC   NC3 7495  18.327   4.235   1.552
  626DOPC   PO4 7496  18.281   4.164   1.852
  626DOPC   GL1 7497  18.259   4.238   2.152
  626DOPC   GL2 7498  18.092   4.313   2.152
  626DOPC   C1A 7499  18.336   4.198   2.452
  626DOPC   D2A 7500  18.257   4.208   2.752
  626DOPC   C3A 7501  18.337   4.232   3.051
  626DOPC   C4A 7502  18.246   4.212   3.352
  626DOPC   C1B 7503  17.952   4.329   2.452
  626DOPC   D2B 7504  17.972   4.329   2.752
  626DOPC   C3B 7505  17.954   4.372   3.051
  626DOPC   C4B 7506  17.931   4.376   3.352
  627DOPC   NC3 7507   1.195   2.129   1.552
  627DOPC   PO4 7508   1.228   2.142   1.852
  627DOPC   GL1 7509   1.256   2.108   2.152
  627DOPC   GL2 7510   1.252   1.956   2.152
  627DOPC   C1A 7511   1.262   2.196   2.452
  627DOPC   D2A 7512   1.215   2.182   2.752
  627DOPC   C3A 7513   1.207   2.187   3.051
  627DOPC   C4A 7514   1.236   2.168   3.352
  627DOPC   C1B 7515   1.209   1.845   2.452
  627DOPC   D2B 7516   1.141   1.748   2.752
  627DOPC   C3B 7517   1.158   1.753   3.051
  627DOPC   C4B 7518   1.167   1.843   3.352
  628DOPC   NC3 7519  19.632   3.336   1.552
  628DOPC   PO4 7520  19.612   3.304   1.852
  628DOPC   GL1 7521  19.680   3.361   2.152
  628DOPC   GL2 7522  19.635   3.522   2.152
  628DOPC   C1A 7523  19.623   3.356   2.452
  628DOPC   D2A 7524  19.620   3.321   2.752
  628DOPC   C3A 7525  19.683   3.342   3.051
  628DOPC   C4A 7526  19.620   3.304   3.352
  628DOPC   C1B 7527  19.727   3.659   2.452
  628DOPC   D2B 7528  19.700   3.729   2.752
  628DOPC   C3B 7529  19.722   3.684   3.051
  628DOPC   C4B 7530  19.701   3.690   3.352
  629DOPC   NC3 7531  15.011   9.498   1.552
  629DOPC   PO4 7532  14.947   9.489   1.852
  629DOPC   GL1 7533  14.955   9.511   2.152
  629DOPC   GL2 7534  15.040   9.671   2.152
  629DOPC   C1A 7535  14.937   9.505   2.452
  629DOPC   D2A 7536  14.979   9.514   2.752
  629DOPC   C3A 7537  14.926   9.481   3.051
  629DOPC   C4A 7538  15.017   9.478   3.352
  629DOPC   C1B 7539  15.108   9.781   2.452
  629DOPC   D2B 7540  15.130   9.792   2.752
  629DOPC   C3B 7541  15.147   9.819   3.051
  629DOPC   C4B 7542  15.131   9.829   3.352
  630DOPC   NC3 7543   9.773   0.587   1.552
  630DOPC   PO4 7544   9.806   0.557   1.852
  630DOPC   GL1 7545   9.776   0.574   2.152
  630DOPC   GL2 7546   9.666   0.483   2.152
  630DOPC   C1A 7547   9.768   0.589   2.452
  630DOPC   D2A 7548   9.779   0.524   2.752
  630DOPC   C3A 7549   9.762   0.528   3.051
  630DOPC   C4A 7550   9.802   0.510   3.352
  630DOPC   C1B 7551   9.560   0.293   2.452
  630DOPC   D2B 7552   9.502   0.290   2.752
  630DOPC   C3B 7553   9.500   0.289   3.051
  630DOPC   C4B 7554   9.556   0.317   3.352
  631DOPC   NC3 7555   4.384   1.858   1.552
  631DOPC   PO4 7556   4.436   1.817   1.852
  631DOPC   GL1 7557   4.413   1.843   2.152
  631DOPC   GL2 7558   4.310   1.977   2.152
  631DOPC   C1A 7559   4.439   1.855   2.452
  631DOPC   D2A 7560   4.378   1.868   2.752
  631DOPC   C3A 7561   4.373   1.891   3.051
  631DOPC   C4A 7562   4.401   1.888   3.352
  631DOPC   C1B 7563   4.163   2.038   2.452
  631DOPC   D2B 7564   4.108   2.046   2.752
  631DOPC   C3B 7565   4.148   2.115   3.051
  631DOPC   C4B 7566   4.132   2.130   3.352
  632DOPC   NC3 7567   6.718   0.348   1.552
  632DOPC   PO4 7568   6.738   0.360   1.852
  632DOPC   GL1 7569   6.779   0.368   2.152
  632DOPC   GL2 7570   6.572   0.455   2.152
  632DOPC   C1A 7571   6.756   0.405   2.452
  632DOPC   D2A 7572   6.787   0.419   2.752
  632DOPC   C3A 7573   6.720   0.367   3.051
  632DOPC   C4A 7574   6.723   0.407   3.352
  632DOPC   C1B 7575   6.460   0.479   2.452
  632DOPC   D2B 7576   6.454   0.521   2.752
  632DOPC   C3B 7577   6.423   0.527   3.051
  632DOPC   C4B 7578   6.387   0.514   3.352
  633DOPC   NC3 7579   8.321   9.592   1.552
  633DOPC   PO4 7580   8.278   9.591   1.852
  633DOPC   GL1 7581   8.310   9.531   2.152
  633DOPC   GL2 7582   8.135   9.683   2.152
  633DOPC   C1A 7583   8.300   9.608   2.452
  633DOPC   D2A 7584   8.318   9.604   2.752
  633DOPC   C3A 7585   8.235   9.544   3.051
  633DOPC   C4A 7586   8.224   9.514   3.352
  633DOPC   C1B 7587   7.959   9.755   2.452
  633DOPC   D2B 7588   8.025   9.745   2.752
  633DOPC   C3B 7589   7.984   9.803   3.051
  633DOPC   C4B 7590   7.963   9.788   3.352
  634DOPC   NC3 7591  16.475   0.594   1.552
  634DOPC   PO4 7592  16.501   0.567   1.852
  634DOPC   GL1 7593  16.469   0.522   2.152
  634DOPC   GL2 7594  16.581   0.484   2.152
  634DOPC   C1A 7595  16.473   0.524   2.452
  634DOPC   D2A 7596  16.507   0.536   2.752
  634DOPC   C3A 7597  16.449   0.542   3.051
  634DOPC   C4A 7598  16.481   0.549   3.352
  634DOPC   C1B 7599  16.685   0.266   2.452
  634DOPC   D2B 7600  16.681   0.271   2.752
  634DOPC   C3B 7601  16.693   0.272   3.051
  634DOPC   C4B 7602  16.695   0.337   3.352
  635DOPC   NC3 7603   3.499   1.428   1.552
  635DOPC   PO4 7604   3.492   1.353   1.852
  635DOPC   GL1 7605   3.497   1.395   2.152
  635DOPC   GL2 7606   3.505   1.182   2.152
  635DOPC   C1A 7607   3.444   1.427   2.452
  635DOPC   D2A 7608   3.481   1.376   2.752
  635DOPC   C3A 7609   3.489   1.361   3.051
  635DOPC   C4A 7610   3.526   1.388   3.352
  635DOPC   C1B 7611   3.519   1.039   2.452
  635DOPC   D2B 7612   3.498   1.059   2.752
  635DOPC   C3B 7613   3.517   0.983   3.051
  635DOPC   C4B 7614   3.542   1.071   3.352
  636DOPC   NC3 7615   4.071   6.611   1.552
  636DOPC   PO4 7616   4.129   6.681   1.852
  636DOPC   GL1 7617   4.105   6.602   2.152
  636DOPC   GL2 7618   4.294   6.624   2.152
  636DOPC   C1A 7619   4.136   6.604   2.452
  636DOPC   D2A 7620   4.118   6.652   2.752
  636DOPC   C3A 7621   4.137   6.630   3.051
  636DOPC   C4A 7622   4.099   6.649   3.352
  636DOPC   C1B 7623   4.427   6.526   2.452
  636DOPC   D2B 7624   4.461   6.583   2.752
  636DOPC   C3B 7625   4.405   6.496   3.051
  636DOPC   C4B 7626   4.409   6.553   3.352
  637DOPC   NC3 7627   4.141   9.555   1.552
  637DOPC   PO4 7628   4.181   9.595   1.852
  637DOPC   GL1 7629   4.110   9.521   2.152
  637DOPC   GL2 7630   4.326   9.639   2.152
  637DOPC   C1A 7631   4.158   9.523   2.452
  637DOPC   D2A 7632   4.121   9.572   2.752
  637DOPC   C3A 7633   4.189   9.556   3.051
  637DOPC   C4A 7634   4.112   9.547   3.352
  637DOPC   C1B 7635   4.383   9.800   2.452
  637DOPC   D2B 7636   4.392   9.742   2.752
  637DOPC   C3B 7637   4.423   9.824   3.051
  637DOPC   C4B 7638   4.400   9.789   3.352
  638DOPC   NC3 7639  12.900   2.630   1.552
  638DOPC   PO4 7640  12.946   2.694   1.852
  638DOPC   GL1 7641  12.865   2.613   2.152
  638DOPC   GL2 7642  12.718   2.705   2.152
  638DOPC   C1A 7643  12.925   2.689   2.452
  638DOPC   D2A 7644  12.888   2.622   2.752
  638DOPC   C3A 7645  12.907   2.652   3.051
  638DOPC   C4A 7646  12.937   2.676   3.352
  638DOPC   C1B 7647  12.550   2.798   2.452
  638DOPC   D2B 7648  12.548   2.866   2.752
  638DOPC   C3B 7649  12.601   2.846   3.051
  638DOPC   C4B 7650  12.561   2.852   3.352
  639DOPC   NC3 7651   1.794   5.903   1.552
  639DOPC   PO4 7652   1.846   5.885   1.852
  639DOPC   GL1 7653   1.834   5.929   2.152
  639DOPC   GL2 7654   1.932   5.783   2.152
  639DOPC   C1A 7655   1.866   5.890   2.452
  639DOPC   D2A 7656   1.778   5.893   2.752
  639DOPC   C3A 7657   1.833   5.892   3.051
  639DOPC   C4A 7658   1.796   5.885   3.352
  639DOPC   C1B 7659   2.160   5.736   2.452
  639DOPC   D2B 7660   2.092   5.749   2.752
  639DOPC   C3B 7661   2.071   5.739   3.051
  639DOPC   C4B 7662   2.166   5.687   3.352
  640DOPC   NC3 7663  16.650   3.711   1.552
  640DOPC   PO4 7664  16.701   3.656   1.852
  640DOPC   GL1 7665  16.717   3.635   2.152
  640DOPC   GL2 7666  16.577   3.558   2.152
  640DOPC   C1A 7667  16.620   3.651   2.452
  640DOPC   D2A 7668  16.710   3.710   2.752
  640DOPC   C3A 7669  16.643   3.637   3.051
  640DOPC   C4A 7670  16.632   3.642   3.352
  640DOPC   C1B 7671  16.534   3.342   2.452
  640DOPC   D2B 7672  16.513   3.324   2.752
  640DOPC   C3B 7673  16.514   3.377   3.051
  640DOPC   C4B 7674  16.511   3.389   3.352
  641DOPC   NC3 7675   1.094   0.589   1.552
  641DOPC   PO4 7676   1.079   0.623   1.852
  641DOPC   GL1 7677   1.075   0.625   2.152
  641DOPC   GL2 7678   1.160   0.442   2.152
  641DOPC   C1A 7679   1.069   0.532   2.452
  641DOPC   D2A 7680   1.151   0.626   2.752
  641DOPC   C3A 7681   1.070   0.623   3.051
  641DOPC   C4A 7682   1.132   0.597   3.352
  641DOPC   C1B 7683   1.288   0.265   2.452
  641DOPC   D2B 7684   1.273   0.334   2.752
  641DOPC   C3B 7685   1.308   0.331   3.051
  641DOPC   C4B 7686   1.302   0.298   3.352
  642DOPC   NC3 7687   6.426   4.881   1.552
  642DOPC   PO4 7688   6.460   4.954   1.852
  642DOPC   GL1 7689   6.462   4.931   2.152
  642DOPC   GL2 7690   6.590   5.056   2.152
  642DOPC   C1A 7691   6.494   4.949   2.452
  642DOPC   D2A 7692   6.514   4.958   2.752
  642DOPC   C3A 7693   6.465   4.931   3.051
  642DOPC   C4A 7694   6.505   4.938   3.352
  642DOPC   C1B 7695   6.708   5.167   2.452
  642DOPC   D2B 7696   6.709   5.205   2.752
  642DOPC   C3B 7697   6.761   5.129   3.051
  642DOPC   C4B 7698   6.720   5.194   3.352
  643DOPC   NC3 7699   2.577   1.886   1.552
  643DOPC   PO4 7700   2.590   1.863   1.852
  643DOPC   GL1 7701   2.605   1.842   2.152
  643DOPC   GL2 7702   2.743   1.951   2.152
  643DOPC   C1A 7703   2.625   1.895   2.452
  643DOPC   D2A 7704   2.593   1.888   2.752
  643DOPC   C3A 7705   2.619   1.863   3.051
  643DOPC   C4A 7706   2.544   1.887   3.352
  643DOPC   C1B 7707   2.894   2.104   2.452
  643DOPC   D2B 7708   2.865   2.100   2.752
  643DOPC   C3B 7709   2.850   2.070   3.051
  643DOPC   C4B 7710   2.900   2.055   3.352
  644DOPC   NC3 7711  19.601   4.424   1.552
  644DOPC   PO4 7712  19.589   4.415   1.852
  644DOPC   GL1 7713  19.606   4.391   2.152
  644DOPC   GL2 7714  19.709   4.254   2.152
  644DOPC   C1A 7715  19.528   4.453   2.452
  644DOPC   D2A 7716  19.599   4.406   2.752
  644DOPC   C3A 7717  19.609   4.460   3.051
  644DOPC   C4A 7718  19.533   4.427   3.352
  644DOPC   C1B 7719  19.767   4.159   2.452
  644DOPC   D2B 7720  19.804   4.137   2.752
  644DOPC   C3B 7721  19.805   4.151   3.051
  644DOPC   C4B 7722  19.806   4.172   3.352
  645DOPC   NC3 7723   3.685   6.491   1.552
  645DOPC   PO4 7724   3.651   6.555   1.852
  645DOPC   GL1 7725   3.637   6.558   2.152
  645DOPC   GL2 7726   3.477   6.628   2.152
  645DOPC   C1A 7727   3.677   6.496   2.452
  645DOPC   D2A 7728   3.677   6.496   2.752
  645DOPC   C3A 7729   3.660   6.511   3.051
  645DOPC   C4A 7730   3.667   6.483   3.352
  645DOPC   C1B 7731   3.357   6.702   2.452
  645DOPC   D2B 7732   3.384   6.623   2.752
  645DOPC   C3B 7733   3.323   6.667   3.051
  645DOPC   C4B 7734   3.322   6.658   3.352
  646DOPC   NC3 7735  14.470   2.056   1.552
  646DOPC   PO4 7736  14.403   2.000   1.852
  646DOPC   GL1 7737  14.481   2.073   2.152
  646DOPC   GL2 7738  14.303   1.990   2.152
  646DOPC   C1A 7739  14.484   2.086   2.452
  646DOPC   D2A 7740  14.435   2.087   2.752
  646DOPC   C3A 7741  14.414   2.076   3.051
  646DOPC   C4A 7742  14.431   2.019   3.352
  646DOPC   C1B 7743  14.112   1.932   2.452
  646DOPC   D2B 7744  14.113   1.920   2.752
  646DOPC   C3B 7745  14.146   1.857   3.051
  646DOPC   C4B 7746  14.161   1.876   3.352
  647DOPC   NC3 7747   3.409   3.372   1.552
  647DOPC   PO4 7748   3.325   3.376   1.852
  647DOPC   GL1 7749   3.346   3.371   2.152
  647DOPC   GL2 7750   3.499   3.550   2.152
  647DOPC   C1A 7751   3.375   3.393   2.452
  647DOPC   D2A 7752   3.390   3.405   2.752
  647DOPC   C3A 7753   3.357   3.401   3.051
  647DOPC   C4A 7754   3.405   3.406   3.352
  647DOPC   C1B 7755   3.644   3.573   2.452
  647DOPC   D2B 7756   3.691   3.570   2.752
  647DOPC   C3B 7757   3.619   3.588   3.051
  647DOPC   C4B 7758   3.686   3.591   3.352
  648DOPC   NC3 7759  15.957   8.869   1.552
  648DOPC   PO4 7760  16.006   8.844   1.852
  648DOPC   GL1 7761  16.045   8.902   2.152
  648DOPC   GL2 7762  15.776   8.871   2.152
  648DOPC   C1A 7763  16.044   8.877   2.452
  648DOPC   D2A 7764  16.006   8.884   2.752
  648DOPC   C3A 7765  16.018   8.879   3.051
  648DOPC   C4A 7766  16.005   8.866   3.352
  648DOPC   C1B 7767  15.618   8.872   2.452
  648DOPC   D2B 7768  15.675   8.899   2.752
  648DOPC   C3B 7769  15.689   8.955   3.051
  648DOPC   C4B 7770  15.640   8.960   3.352
  649DOPC   NC3 7771   8.884   2.532   1.552
  649DOPC   PO4 7772   8.855   2.543   1.852
  649DOPC   GL1 7773   8.893   2.554   2.152
  649DOPC   GL2 7774   8.886   2.714   2.152
  649DOPC   C1A 7775   8.936   2.610   2.452
  649DOPC   D2A 7776   8.901   2.557   2.752
  649DOPC   C3A 7777   8.917   2.585   3.051
  649DOPC   C4A 7778   8.897   2.603   3.352
  649DOPC   C1B 7779   8.884   2.909   2.452
  649DOPC   D2B 7780   8.909   2.922   2.752
  649DOPC   C3B 7781   8.926   2.916   3.051
  649DOPC   C4B 7782   8.858   2.882   3.352
  650DOPC   NC3 7783  18.915   0.250   1.552
  650DOPC   PO4 7784  18.871   0.266   1.852
  650DOPC   GL1 7785  18.954   0.221   2.152
  650DOPC   GL2 7786  18.848   0.441   2.152
  650DOPC   C1A 7787  18.882   0.296   2.452
  650DOPC   D2A 7788  18.934   0.250   2.752
  650DOPC   C3A 7789  18.936   0.245   3.051
  650DOPC   C4A 7790  18.939   0.304   3.352
  650DOPC   C1B 7791  18.915   0.588   2.452
  650DOPC   D2B 7792  18.896   0.605   2.752
  650DOPC   C3B 7793  18.844   0.625   3.051
  650DOPC   C4B 7794  18.877   0.652   3.352
  651DOPC   NC3 7795  18.682   8.085   1.552
  651DOPC   PO4 7796  18.719   8.104   1.852
  651DOPC   GL1 7797  18.758   8.026   2.152
  651DOPC   GL2 7798  18.912   8.132   2.152
  651DOPC   C1A 7799  18.715   8.105   2.452
  651DOPC   D2A 7800  18.699   8.043   2.752
  651DOPC   C3A 7801  18.768   8.085   3.051
  651DOPC   C4A 7802  18.736   8.103   3.352
  651DOPC   C1B 7803  19.023   8.134   2.452
  651DOPC   D2B 7804  19.055   8.155   2.752
  651DOPC   C3B 7805  19.095   8.186   3.051
  651DOPC   C4B 7806  19.043   8.134   3.352
  652DOPC   NC3 7807   1.052   5.853   1.552
  652DOPC   PO4 7808   1.085   5.836   1.852
  652DOPC   GL1 7809   1.068   5.913   2.152
  652DOPC   GL2 7810   1.180   5.836   2.152
  652DOPC   C1A 7811   1.037   5.921   2.452
  652DOPC   D2A 7812   1.012   5.866   2.752
  652DOPC   C3A 7813   1.076   5.918   3.051
  652DOPC   C4A 7814   1.070   5.913   3.352
  652DOPC   C1B 7815   1.397   5.733   2.452
  652DOPC   D2B 7816   1.389   5.732   2.752
  652DOPC   C3B 7817   1.411   5.786   3.051
  652DOPC   C4B 7818   1.417   5.774   3.352
  653DOPC   NC3 7819   2.605   5.101   1.552
  653DOPC   PO4 7820   2.554   5.139   1.852
  653DOPC   GL1 7821   2.572   5.064   2.152
  653DOPC   GL2 7822   2.764   5.100   2.152
  653DOPC   C1A 7823   2.601   5.141   2.452
  653DOPC   D2A 7824   2.611   5.136   2.752
  653DOPC   C3A 7825   2.538   5.103   3.051
  653DOPC   C4A 7826   2.525   5.059   3.352
  653DOPC   C1B 7827   2.964   5.003   2.452
  653DOPC   D2B 7828   2.890   4.957   2.752
  653DOPC   C3B 7829   2.898   5.004   3.051
  653DOPC   C4B 7830   2.917   4.962   3.352
  654DOPC   NC3 7831   9.503   3.479   1.552
  654DOPC   PO4 7832   9.437   3.479   1.852
  654DOPC   GL1 7833   9.517   3.534   2.152
  654DOPC   GL2 7834   9.683   3.545   2.152
  654DOPC   C1A 7835   9.442   3.519   2.452
  654DOPC   D2A 7836   9.470   3.526   2.752
  654DOPC   C3A 7837   9.488   3.494   3.051
  654DOPC   C4A 7838   9.483   3.515   3.352
  654DOPC   C1B 7839   9.830   3.483   2.452
  654DOPC   D2B 7840   9.850   3.457   2.752
  654DOPC   C3B 7841   9.816   3.522   3.051
  654DOPC   C4B 7842   9.845   3.460   3.352
  655DOPC   NC3 7843  11.213   0.262   1.552
  655DOPC   PO4 7844  11.307   0.300   1.852
  655DOPC   GL1 7845  11.291   0.221   2.152
  655DOPC   GL2 7846  11.227   0.402   2.152
  655DOPC   C1A 7847  11.263   0.268   2.452
  655DOPC   D2A 7848  11.222   0.243   2.752
  655DOPC   C3A 7849  11.216   0.293   3.051
  655DOPC   C4A 7850  11.217   0.280   3.352
  655DOPC   C1B 7851  11.124   0.556   2.452
  655DOPC   D2B 7852  11.150   0.622   2.752
  655DOPC   C3B 7853  11.152   0.618   3.051
  655DOPC   C4B 7854  11.188   0.598   3.352
  656DOPC   NC3 7855   5.980   2.890   1.552
  656DOPC   PO4 7856   5.906   2.906   1.852
  656DOPC   GL1 7857   5.896   2.904   2.152
  656DOPC   GL2 7858   5.799   2.699   2.152
  656DOPC   C1A 7859   5.979   2.904   2.452
  656DOPC   D2A 7860   5.935   2.821   2.752
  656DOPC   C3A 7861   5.926   2.821   3.051
  656DOPC   C4A 7862   5.968   2.877   3.352
  656DOPC   C1B 7863   5.703   2.615   2.452
  656DOPC   D2B 7864   5.730   2.587   2.752
  656DOPC   C3B 7865   5.663   2.605   3.051
  656DOPC   C4B 7866   5.735   2.622   3.352
  657DOPC   NC3 7867  14.468   5.693   1.552
  657DOPC   PO4 7868  14.488   5.772   1.852
  657DOPC   GL1 7869  14.409   5.693   2.152
  657DOPC   GL2 7870  14.313   5.820   2.152
  657DOPC   C1A 7871  14.476   5.772   2.452
  657DOPC   D2A 7872  14.411   5.783   2.752
  657DOPC   C3A 7873  14.416   5.728   3.051
  657DOPC   C4A 7874  14.437   5.769   3.352
  657DOPC   C1B 7875  14.108   5.887   2.452
  657DOPC   D2B 7876  14.159   5.872   2.752
  657DOPC   C3B 7877  14.143   5.895   3.051
  657DOPC   C4B 7878  14.123   5.936   3.352
  658DOPC   NC3 7879  15.733   6.703   1.552
  658DOPC   PO4 7880  15.747   6.690   1.852
  658DOPC   GL1 7881  15.666   6.772   2.152
  658DOPC   GL2 7882  15.840   6.621   2.152
  658DOPC   C1A 7883  15.757   6.761   2.452
  658DOPC   D2A 7884  15.734   6.770   2.752
  658DOPC   C3A 7885  15.694   6.682   3.051
  658DOPC   C4A 7886  15.711   6.694   3.352
  658DOPC   C1B 7887  15.931   6.417   2.452
  658DOPC   D2B 7888  15.893   6.448   2.752
  658DOPC   C3B 7889  15.897   6.430   3.051
  658DOPC   C4B 7890  15.907   6.415   3.352
  659DOPC   NC3 7891  15.913   3.690   1.552
  659DOPC   PO4 7892  15.959   3.695   1.852
  659DOPC   GL1 7893  15.937   3.670   2.152
  659DOPC   GL2 7894  15.796   3.495   2.152
  659DOPC   C1A 7895  15.926   3.621   2.452
  659DOPC   D2A 7896  15.883   3.687   2.752
  659DOPC   C3A 7897  15.937   3.678   3.051
  659DOPC   C4A 7898  15.936   3.670   3.352
  659DOPC   C1B 7899  15.718   3.393   2.452
  659DOPC   D2B 7900  15.738   3.388   2.752
  659DOPC   C3B 7901  15.721   3.410   3.051
  659DOPC   C4B 7902  15.735   3.398   3.352
  660DOPC   NC3 7903  10.553   1.101   1.552
  660DOPC   PO4 7904  10.600   1.088   1.852
  660DOPC   GL1 7905  10.557   1.148   2.152
  660DOPC   GL2 7906  10.400   1.194   2.152
  660DOPC   C1A 7907  10.634   1.120   2.452
  660DOPC   D2A 7908  10.618   1.077   2.752
  660DOPC   C3A 7909  10.546   1.165   3.051
  660DOPC   C4A 7910  10.626   1.094   3.352
  660DOPC   C1B 7911  10.250   1.307   2.452
  660DOPC   D2B 7912  10.321   1.332   2.752
  660DOPC   C3B 7913  10.283   1.240   3.051
  660DOPC   C4B 7914  10.225   1.264   3.352
  661DOPC   NC3 7915  12.887   5.697   1.552
  661DOPC   PO4 7916  12.878   5.642   1.852
  661DOPC   GL1 7917  12.820   5.710   2.152
  661DOPC   GL2 7918  12.740   5.831   2.152
  661DOPC   C1A 7919  12.898   5.691   2.452
  661DOPC   D2A 7920  12.878   5.702   2.752
  661DOPC   C3A 7921  12.892   5.667   3.051
  661DOPC   C4A 7922  12.839   5.654   3.352
  661DOPC   C1B 7923  12.589   5.902   2.452
  661DOPC   D2B 7924  12.621   5.909   2.752
  661DOPC   C3B 7925  12.636   5.976   3.051
  661DOPC   C4B 7926  12.609   5.954   3.352
  662DOPC   NC3 7927   3.395   4.413   1.552
  662DOPC   PO4 7928   3.356   4.381   1.852
  662DOPC   GL1 7929   3.337   4.349   2.152
  662DOPC   GL2 7930   3.488   4.294   2.152
  662DOPC   C1A 7931   3.407   4.382   2.452
  662DOPC   D2A 7932   3.399   4.397   2.752
  662DOPC   C3A 7933   3.346   4.346   3.051
  662DOPC   C4A 7934   3.321   4.349   3.352
  662DOPC   C1B 7935   3.688   4.163   2.452
  662DOPC   D2B 7936   3.684   4.216   2.752
  662DOPC   C3B 7937   3.684   4.153   3.051
  662DOPC   C4B 7938   3.650   4.224   3.352
  663DOPC   NC3 7939  11.140   2.539   1.552
  663DOPC   PO4 7940  11.139   2.613   1.852
  663DOPC   GL1 7941  11.128   2.571   2.152
  663DOPC   GL2 7942  11.198   2.721   2.152
  663DOPC   C1A 7943  11.105   2.556   2.452
  663DOPC   D2A 7944  11.168   2.550   2.752
  663DOPC   C3A 7945  11.103   2.537   3.051
  663DOPC   C4A 7946  11.174   2.559   3.352
  663DOPC   C1B 7947  11.250   2.859   2.452
  663DOPC   D2B 7948  11.280   2.913   2.752
  663DOPC   C3B 7949  11.241   2.912   3.051
  663DOPC   C4B 7950  11.315   2.863   3.352
  664DOPC   NC3 7951  12.057   6.398   1.552
  664DOPC   PO4 7952  11.997   6.411   1.852
  664DOPC   GL1 7953  12.041   6.391   2.152
  664DOPC   GL2 7954  12.012   6.553   2.152
  664DOPC   C1A 7955  11.997   6.450   2.452
  664DOPC   D2A 7956  12.044   6.385   2.752
  664DOPC   C3A 7957  12.030   6.462   3.051
  664DOPC   C4A 7958  12.092   6.399   3.352
  664DOPC   C1B 7959  11.926   6.746   2.452
  664DOPC   D2B 7960  11.919   6.752   2.752
  664DOPC   C3B 7961  11.905   6.796   3.051
  664DOPC   C4B 7962  11.924   6.750   3.352
  665DOPC   NC3 7963  17.481   5.700   1.552
  665DOPC   PO4 7964  17.459   5.684   1.852
  665DOPC   GL1 7965  17.452   5.681   2.152
  665DOPC   GL2 7966  17.349   5.829   2.152
  665DOPC   C1A 7967  17.418   5.641   2.452
  665DOPC   D2A 7968  17.476   5.665   2.752
  665DOPC   C3A 7969  17.399   5.696   3.051
  665DOPC   C4A 7970  17.453   5.612   3.352
  665DOPC   C1B 7971  17.324   6.012   2.452
  665DOPC   D2B 7972  17.296   6.027   2.752
  665DOPC   C3B 7973  17.231   5.951   3.051
  665DOPC   C4B 7974  17.303   5.959   3.352
  666W        W 7975   7.602   5.960   6.915
  667W        W 7976   3.666   1.689   6.475
  668W        W 7977  11.966   8.844   9.301
  669W        W 7978   5.158   6.452   7.396
  670W        W 7979   1.751   8.357   0.746
  671W        W 7980   7.563   6.909   5.968
  672W        W 7981  18.329   4.552   0.736
  673W        W 7982  11.996   5.042   5.515
  674W        W 7983  10.517   3.603   9.331
  675W        W 7984  18.315   2.637   8.851
  676W        W 7985  18.825   5.486   8.837
  677W        W 7986  19.288   2.653   0.718
  678W        W 7987  14.424   5.978   7.882
  679W        W 7988   8.072   6.459   6.474
  680W        W 7989  19.792   5.037   9.762
  681W        W 7990  12.936   0.251   6.935
  682W        W 7991   9.522   8.376   7.387
  683W        W 7992  13.948   5.047   7.407
  684W        W 7993  17.830   9.297   6.461
  685W        W 7994  11.013   6.941   9.319
  686W        W 7995  10.500   6.944   5.978
  687W        W 7996  15.398   7.900   5.959
  688W        W 7997  15.372   8.854   8.830
  689W        W 7998  12.458   6.947   9.768
  690W        W 7999  14.879   8.823   6.467
  691W        W 8000   8.061   2.652   9.801
  692W        W 8001   0.253   7.403   7.877
  693W        W 8002  18.815   8.827   0.244
  694W        W 8003  13.908   4.554   6.431
  695W        W 8004   0.735   8.854   5.964
  696W        W 8005  11.507   0.759   9.780
  697W        W 8006  12.930   4.560   7.407
  698W        W 8007  15.396   0.268   9.303
  699W        W 8008  18.337   5.000   8.824
  700W        W 8009   6.144   7.385   7.861
  701W        W 8010   1.235   4.084   8.378
  702W        W 8011  12.952   2.631   7.425
  703W        W 8012   2.240   7.862   0.263
  704W        W 8013   3.201   3.099   8.358
  705W        W 8014  18.335   2.656   7.408
  706W        W 8015   5.633   5.489   5.962
  707W        W 8016  15.890   5.506   7.406
  708W        W 8017  18.328   5.504   8.844
  709W        W 8018   6.133   6.434   6.922
  710W        W 8019  14.892   6.429   8.822
  711W        W 8020   6.100   2.162   0.737
  712W        W 8021   8.095   1.687   8.380
  713W        W 8022   6.594   4.567   7.895
  714W        W 8023  12.953   4.552   6.949
  715W        W 8024  19.770   4.550   7.413
  716W        W 8025   7.105   5.965   6.435
  717W        W 8026   6.634   5.972   9.801
  718W        W 8027   9.040   7.891   6.928
  719W        W 8028  16.349   6.922   8.347
  720W        W 8029  10.025   9.787   6.912
  721W        W 8030   1.751   4.553   9.287
  722W        W 8031  17.836   2.169   8.355
  723W        W 8032  13.425   8.839   9.302
  724W        W 8033  17.350   7.414   9.327
  725W        W 8034  14.422   6.432   7.411
  726W        W 8035   9.061   7.426   7.894
  727W        W 8036  13.918   2.184   6.946
  728W        W 8037  13.463   4.545   8.370
  729W        W 8038  15.413   1.229   7.417
  730W        W 8039  11.974   6.944   9.332
  731W        W 8040   0.280   9.287   6.441
  732W        W 8041   1.256   3.595   0.282
  733W        W 8042   4.177   1.191   9.322
  734W        W 8043  19.780   7.403   7.407
  735W        W 8044  18.308   2.644   5.981
  736W        W 8045   9.052   8.338   7.891
  737W        W 8046   3.178   1.668   9.312
  738W        W 8047   8.097   9.784   6.429
  739W        W 8048   5.141   9.766   9.766
  740W        W 8049  11.024   0.272   9.769
  741W        W 8050  16.390   6.936   0.255
  742W        W 8051  11.973   1.675   9.808
  743W        W 8052  10.991   8.334   7.418
  744W        W 8053   4.177   5.999   6.919
  745W        W 8054   7.119   6.463   9.765
  746W        W 8055   9.051   8.371   8.334
  747W        W 8056  18.805   5.033   6.907
  748W        W 8057   7.593   3.579   0.248
  749W        W 8058  19.299   2.180   0.255
  750W        W 8059  19.296   6.931   6.951
  751W        W 8060  13.910   3.605   7.398
  752W        W 8061  16.867   4.538   6.457
  753W        W 8062   9.042   6.451   0.279
  754W        W 8063  15.386   1.215   8.818
  755W        W 8064  13.918   0.248   0.741
  756W        W 8065  16.856   5.028   7.428
  757W        W 8066   8.094   7.417   7.881
  758W        W 8067   5.165   8.855   8.345
  759W        W 8068  16.832   5.489   9.776
  760W        W 8069   2.207   0.725   7.861
  761W        W 8070   8.057   5.995   8.365
  762W        W 8071   5.169   7.406   8.373
  763W        W 8072  16.382   2.658   0.727
  764W        W 8073   3.183   2.152   6.925
  765W        W 8074  12.928   6.949   8.817
  766W        W 8075   7.098   1.232   0.257
  767W        W 8076  14.920   1.711   7.424
  768W        W 8077  19.772   8.833   7.895
  769W        W 8078   6.109   5.025   9.805
  770W        W 8079  12.932   9.809   9.310
  771W        W 8080  12.953   1.206   8.374
  772W        W 8081   4.164   4.571   8.352
  773W        W 8082  15.375   8.812   9.321
  774W        W 8083   1.238   5.521   7.857
  775W        W 8084   1.260   9.314   6.949
  776W        W 8085   6.146   2.648   0.258
  777W        W 8086   7.091   7.869   7.396
  778W        W 8087  10.017   5.484   5.989
  779W        W 8088   8.056   9.770   7.862
  780W        W 8089  18.323   9.288   0.249
  781W        W 8090  15.379   3.133   0.253
  782W        W 8091   9.034   4.063   7.383
  783W        W 8092  12.488   7.879   6.449
  784W        W 8093   7.082   2.161   7.410
  785W        W 8094  10.514   3.584   0.743
  786W        W 8095   2.716   3.100   9.789
  787W        W 8096   5.142   2.620   0.280
  788W        W 8097   6.630   2.169   9.288
  789W        W 8098   1.265   8.840   8.340
  790W        W 8099   1.735   0.249   0.257
  791W        W 8100   6.622   2.157   5.974
  792W        W 8101  12.446   6.439   9.764
  793W        W 8102   9.522   1.681   6.912
  794W        W 8103  14.425   9.326   0.268
  795W        W 8104   0.273   8.819   9.767
  796W        W 8105   8.065   8.354   0.717
  797W        W 8106   7.119   0.256   0.719
  798W        W 8107   8.568   6.464   0.725
  799W        W 8108  11.968   0.739   7.884
  800W        W 8109   4.168   2.638   0.749
  801W        W 8110   4.159   8.374   7.418
  802W        W 8111   1.754   8.850   6.935
  803W        W 8112  19.773   9.773   7.386
  804W        W 8113  11.506   4.090   7.902
  805W        W 8114  15.889   0.243   7.386
  806W        W 8115  17.337   8.370   6.923
  807W        W 8116  12.472   1.694   9.807
  808W        W 8117   9.027   0.758   8.854
  809W        W 8118   8.540   5.028   9.795
  810W        W 8119  11.466   2.630   0.242
  811W        W 8120  15.892   2.650   9.295
  812W        W 8121   3.185   5.518   6.463
  813W        W 8122  17.339   3.104   6.456
  814W        W 8123  18.817   6.947   5.988
  815W        W 8124  13.936   8.825   0.719
  816W        W 8125   8.572   6.927   6.436
  817W        W 8126  17.353   4.075   0.741
  818W        W 8127   1.250   8.837   8.854
  819W        W 8128  16.833   5.979   7.859
  820W        W 8129  17.852   4.548   8.346
  821W        W 8130  10.004   5.022   5.522
  822W        W 8131  11.977   3.586   9.770
  823W        W 8132  12.475   2.628   7.861
  824W        W 8133  11.000   2.166   9.782
  825W        W 8134   3.662   4.530   7.871
  826W        W 8135   1.723   3.609   9.777
  827W        W 8136  19.270   2.665   7.869
  828W        W 8137   2.709   9.769   7.882
  829W        W 8138   7.565   8.350   6.925
  830W        W 8139  10.017   4.569   6.922
  831W        W 8140   8.558   6.474   6.908
  832W        W 8141   0.738   4.534   5.960
  833W        W 8142  14.407   6.917   6.442
  834W        W 8143  10.977   8.830   0.728
  835W        W 8144  10.496   7.862   6.457
  836W        W 8145   0.290   7.403   7.392
  837W        W 8146   2.727   7.867   8.831
  838W        W 8147   8.060   7.389   8.838
  839W        W 8148  15.894   4.530   6.460
  840W        W 8149   9.530   1.235   9.780
  841W        W 8150   9.038   9.293   7.417
  842W        W 8151  10.999   9.804   9.764
  843W        W 8152  19.769   7.402   8.369
  844W        W 8153  16.356   3.601   7.415
  845W        W 8154  16.831   5.982   6.456
  846W        W 8155  13.422   4.533   5.963
  847W        W 8156  18.339   6.463   6.433
  848W        W 8157  16.834   1.207   7.407
  849W        W 8158   9.548   4.088   7.382
  850W        W 8159  13.433   0.269   7.396
  851W        W 8160   5.646   1.699   0.263
  852W        W 8161   8.054   7.871   9.293
  853W        W 8162   4.674   2.664   6.941
  854W        W 8163  18.802   3.100   9.311
  855W        W 8164   4.175   3.610   7.416
  856W        W 8165   8.543   2.633   9.762
  857W        W 8166   1.252   9.332   7.863
  858W        W 8167  15.901   5.023   9.780
  859W        W 8168  11.465   3.613   0.269
  860W        W 8169  10.522   0.278   0.728
  861W        W 8170   6.632   4.069   6.913
  862W        W 8171   3.674   5.973   9.787
  863W        W 8172   4.664   5.011   6.908
  864W        W 8173  14.411   4.058   7.395
  865W        W 8174  14.915   5.994   9.783
  866W        W 8175  14.916   3.572   0.720
  867W        W 8176   0.750   1.225   0.740
  868W        W 8177   0.246   1.674   9.762
  869W        W 8178   1.718   9.793   5.966
  870W        W 8179   2.195   0.725   8.360
  871W        W 8180   6.126   8.373   7.419
  872W        W 8181   5.655   9.809   7.862
  873W        W 8182  11.011   5.971   7.428
  874W        W 8183  10.521   1.233   6.440
  875W        W 8184  19.780   0.739   9.296
  876W        W 8185   0.249   7.891   0.743
  877W        W 8186   7.092   9.308   9.792
  878W        W 8187  11.964   5.495   7.407
  879W        W 8188   3.674   9.324   6.918
  880W        W 8189  17.823   2.176   7.872
  881W        W 8190   2.688   1.708   9.787
  882W        W 8191   9.040   0.750   7.896
  883W        W 8192   9.527   8.813   6.432
  884W        W 8193   1.746   8.362   7.402
  885W        W 8194   2.701   0.282   6.469
  886W        W 8195   7.108   1.226   9.806
  887W        W 8196  19.790   6.940   8.853
  888W        W 8197  15.384   6.458   7.419
  889W        W 8198   1.747   9.795   9.803
  890W        W 8199   7.579   7.381   0.717
  891W        W 8200  13.912   9.295   6.918
  892W        W 8201   4.635   5.504   8.850
  893W        W 8202   4.176   1.695   0.726
  894W        W 8203  19.306   7.418   9.322
  895W        W 8204   4.653   0.280   6.917
  896W        W 8205  16.837   1.679   9.313
  897W        W 8206   5.617   2.190   6.951
  898W        W 8207   0.262   5.986   7.420
  899W        W 8208   6.595   2.639   9.332
  900W        W 8209   1.266   4.057   9.776
  901W        W 8210  16.385   5.487   9.304
  902W        W 8211   3.695   1.675   8.844
  903W        W 8212  13.920   2.626   0.270
  904W        W 8213   2.721   2.627   8.370
  905W        W 8214   9.062   2.639   0.740
  906W        W 8215  11.481   6.462   7.408
  907W        W 8216  17.328   2.158   6.919
  908W        W 8217   4.644   4.069   9.781
  909W        W 8218   5.616   1.694   7.425
  910W        W 8219  15.865   9.777   7.863
  911W        W 8220   1.744   1.236   7.424
  912W        W 8221  15.401   5.519   8.359
  913W        W 8222  16.865   6.917   7.414
  914W        W 8223  18.805   2.665   8.832
  915W        W 8224   6.124   9.287   7.417
  916W        W 8225  15.402   6.909   8.815
  917W        W 8226   4.678   9.322   6.434
  918W        W 8227  18.327   6.916   6.906
  919W        W 8228   6.601   8.821   6.432
  920W        W 8229  16.874   8.835   8.845
  921W        W 8230   9.072   1.234   0.251
  922W        W 8231  15.877   8.356   5.954
  923W        W 8232  12.929   2.159   8.842
  924W        W 8233   0.271   9.321   8.380
  925W        W 8234  11.003   8.356   9.290
  926W        W 8235  15.384   1.235   6.943
  927W        W 8236  14.412   1.698   6.446
  928W        W 8237   4.677   0.731   9.766
  929W        W 8238   4.638   4.076   6.942
  930W        W 8239   9.030   4.564   6.456
  931W        W 8240   2.709   8.822   6.435
  932W        W 8241  15.859   2.189   9.802
  933W        W 8242  11.990   1.214   0.749
  934W        W 8243   3.675   2.622   6.906
  935W        W 8244  17.335   3.124   8.380
  936W        W 8245  10.010   0.283   6.930
  937W        W 8246   0.290   3.617   8.855
  938W        W 8247  13.945   2.651   0.742
  939W        W 8248   6.613   8.840   7.394
  940W        W 8249  16.350   0.278   9.296
  941W        W 8250   5.164   4.072   9.798
  942W        W 8251  16.832   4.068   0.258
  943W        W 8252  14.408   3.579   8.379
  944W        W 8253  18.308   0.715   5.971
  945W        W 8254   6.136   8.350   5.998
  946W        W 8255   4.185   8.368   7.866
  947W        W 8256  18.332   3.118   0.735
  948W        W 8257  14.920   1.676   8.379
  949W        W 8258   3.698   5.993   6.438
  950W        W 8259  17.338   3.138   8.842
  951W        W 8260  17.810   4.087   0.265
  952W        W 8261   6.124   8.347   9.792
  953W        W 8262  11.002   7.427   0.714
  954W        W 8263   1.716   1.198   8.855
  955W        W 8264  18.781   4.539   6.912
  956W        W 8265  16.855   9.792   6.466
  957W        W 8266  11.011   4.539   0.239
  958W        W 8267  11.481   7.401   6.950
  959W        W 8268   5.626   6.915   0.279
  960W        W 8269   3.697   6.940   9.301
  961W        W 8270   8.096   5.025   0.275
  962W        W 8271  12.458   8.845   7.864
  963W        W 8272   4.680   2.665   9.306
  964W        W 8273   2.220   1.223   0.736
  965W        W 8274  11.507   3.599   9.312
  966W        W 8275  15.862   3.102   1.230
  967W        W 8276  13.422   1.694   0.257
  968W        W 8277   2.710   5.042   8.830
  969W        W 8278  12.952   5.490   9.801
  970W        W 8279   8.071   2.655   6.947
  971W        W 8280  10.995   6.456   5.961
  972W        W 8281   0.279   7.423   0.718
  973W        W 8282   3.212   7.895   0.724
  974W        W 8283  14.883   3.586   7.863
  975W        W 8284   9.053   5.519   0.727
  976W        W 8285  10.014   1.210   0.730
  977W        W 8286  13.421   9.287   9.765
  978W        W 8287   1.224   4.537   6.459
  979W        W 8288   4.678   8.350   8.850
  980W        W 8289  11.961   2.152   6.923
  981W        W 8290   7.594   7.427   8.824
  982W        W 8291  14.914   5.987   8.350
  983W        W 8292   7.113   4.084   7.888
  984W        W 8293  14.915   1.672   9.775
  985W        W 8294   9.065   0.247   7.864
  986W        W 8295  10.021   6.913   0.717
  987W        W 8296   0.751   6.473   5.998
  988W        W 8297  12.454   5.013   5.985
  989W        W 8298  18.326   2.175   9.287
  990W        W 8299  10.528   6.437   7.418
  991W        W 8300   6.101   2.160   9.797
  992W        W 8301  17.834   5.035   0.274
  993W        W 8302   8.558   5.987   5.986
  994W        W 8303   5.145   8.340   0.729
  995W        W 8304   2.196   1.219   0.273
  996W        W 8305  19.774   1.227   9.298
  997W        W 8306  18.794   0.731   7.397
  998W        W 8307   3.174   5.480   8.346
  999W        W 8308   4.167   5.042   6.930
 1000W        W 8309  17.337   9.780   8.335
 1001W        W 8310   7.593   4.548   0.251
 1002W        W 8311   9.555   2.624   6.916
 1003W        W 8312   6.142   6.462   7.888
 1004W        W 8313   4.159   0.741   0.272
 1005W        W 8314  16.363   6.928   6.922
 1006W        W 8315   1.231   5.488   7.413
 1007W        W 8316  10.988   6.937   7.904
 1008W        W 8317  10.006   3.127   1.669
 1009W        W 8318  10.514   9.788   7.882
 1010W        W 8319   0.738   6.947   6.923
 1011W        W 8320  19.303   0.266   7.416
 1012W        W 8321   6.588   3.589   6.946
 1013W        W 8322   2.685   8.852   8.812
 1014W        W 8323   6.634   8.841   9.767
 1015W        W 8324   6.138   2.646   9.328
 1016W        W 8325   6.141   6.906   6.920
 1017W        W 8326   9.070   1.690   6.950
 1018W        W 8327   8.561   1.679   6.450
 1019W        W 8328   3.196   2.159   9.309
 1020W        W 8329  19.800   9.291   8.338
 1021W        W 8330   4.192   7.904   5.962
 1022W        W 8331  16.829   6.464   6.949
 1023W        W 8332  14.912   5.011   7.903
 1024W        W 8333  11.963   9.295   0.258
 1025W        W 8334  17.817   8.835   8.837
 1026W        W 8335  14.886   1.686   0.741
 1027W        W 8336  17.847   4.090   8.822
 1028W        W 8337  13.430   8.849   6.937
 1029W        W 8338  13.951   8.345   0.269
 1030W        W 8339  13.436   2.636   8.856
 1031W        W 8340  14.409   5.954   6.931
 1032W        W 8341  18.300   5.031   7.892
 1033W        W 8342  18.333   9.766   7.387
 1034W        W 8343   9.024   1.706   8.841
 1035W        W 8344   9.544   1.234   8.848
 1036W        W 8345   5.151   3.609   0.734
 1037W        W 8346  13.418   1.210   7.898
 1038W        W 8347  14.418   5.983   8.825
 1039W        W 8348   9.538   3.133   6.918
 1040W        W 8349  16.857   9.764   0.725
 1041W        W 8350   3.661   6.939   0.277
 1042W        W 8351   7.609   9.308   8.379
 1043W        W 8352  14.391   2.633   8.362
 1044W        W 8353  10.523   5.485   9.297
 1045W        W 8354  17.327   5.985   0.264
 1046W        W 8355  13.914   9.779   6.430
 1047W        W 8356   7.570   5.507   6.458
 1048W        W 8357   6.591   8.848   7.878
 1049W        W 8358   8.540   5.027   8.850
 1050W        W 8359   0.747   9.786   5.971
 1051W        W 8360   2.214   2.635   7.866
 1052W        W 8361   9.045   7.419   0.279
 1053W        W 8362  13.449   5.972   7.388
 1054W        W 8363  18.796   0.261   9.809
 1055W        W 8364  10.497   4.546   0.741
 1056W        W 8365   4.661   5.953   8.818
 1057W        W 8366   2.240   8.361   0.242
 1058W        W 8367  14.417   1.678   7.871
 1059W        W 8368   4.150   7.416   9.329
 1060W        W 8369  16.843   7.413   6.449
 1061W        W 8370   4.152   9.286   7.391
 1062W        W 8371   9.072   6.945   0.244
 1063W        W 8372  13.415   1.225   0.252
 1064W        W 8373   6.126   3.098   6.935
 1065W        W 8374   2.203   5.482   9.330
 1066W        W 8375  10.494   2.149   9.312
 1067W        W 8376   0.761   3.138   0.744
 1068W        W 8377   2.725   8.358   9.779
 1069W        W 8378  12.964   6.942   6.917
 1070W        W 8379  17.331   4.532   9.306
 1071W        W 8380   1.748   4.091   9.286
 1072W        W 8381   1.240   5.509   9.783
 1073W        W 8382  18.791   5.025   9.781
 1074W        W 8383  15.854   4.527   0.259
 1075W        W 8384   0.259   0.280   6.929
 1076W        W 8385  11.501   8.827   7.381
 1077W        W 8386   5.624   8.381   7.866
 1078W        W 8387  17.816   1.702   7.902
 1079W        W 8388  15.370   8.360   7.878
 1080W        W 8389   6.631   8.373   9.777
 1081W        W 8390   7.089   1.677   9.304
 1082W        W 8391  14.889   4.050   9.788
 1083W        W 8392   6.609   3.123   5.955
 1084W        W 8393  10.042   5.968   9.306
 1085W        W 8394   7.094   5.518   0.270
 1086W        W 8395   9.072   3.131   9.779
 1087W        W 8396  18.794   3.578   8.848
 1088W        W 8397   4.162   9.775   8.825
 1089W        W 8398   4.653   0.251   0.749
 1090W        W 8399   1.727   9.309   7.408
 1091W        W 8400   9.054   4.534   7.423
 1092W        W 8401   0.759   9.331   9.329
 1093W        W 8402   2.208   5.523   8.810
 1094W        W 8403  14.918   9.802   7.410
 1095W        W 8404  19.300   5.043   8.835
 1096W        W 8405   9.551   6.930   6.930
 1097W        W 8406   0.263   4.095   8.368
 1098W        W 8407   8.074   3.585   7.425
 1099W        W 8408  13.449   0.276   9.764
 1100W        W 8409  11.992   5.485   6.471
 1101W        W 8410  13.431   3.117   8.340
 1102W        W 8411  19.790   4.091   7.872
 1103W        W 8412  11.024   7.862   9.310
 1104W        W 8413  14.417   4.089   0.748
 1105W        W 8414   4.183   2.666   6.915
 1106W        W 8415  12.472   6.466   6.936
 1107W        W 8416   0.774   8.837   0.246
 1108W        W 8417  13.420   4.527   9.780
 1109W        W 8418  11.472   4.065   9.313
 1110W        W 8419  10.983   1.228   9.305
 1111W        W 8420  10.531   1.204   0.264
 1112W        W 8421  10.518   7.866   6.949
 1113W        W 8422  10.011   0.759   6.932
 1114W        W 8423  18.325   6.429   0.260
 1115W        W 8424  18.805   8.342   6.906
 1116W        W 8425   4.681   6.932   0.241
 1117W        W 8426  19.799   9.314   0.277
 1118W        W 8427  11.470   1.223   0.278
 1119W        W 8428   0.776   9.296   9.768
 1120W        W 8429   5.137   5.039   7.887
 1121W        W 8430   5.658   4.534   7.407
 1122W        W 8431  10.038   4.568   9.766
 1123W        W 8432   5.169   0.752   9.775
 1124W        W 8433   1.742   2.176   7.872
 1125W        W 8434  12.973   7.870   9.797
 1126W        W 8435  10.029   5.013   6.459
 1127W        W 8436  14.891   4.528   0.719
 1128W        W 8437   2.218   4.061   9.320
 1129W        W 8438   1.238   5.043   8.376
 1130W        W 8439  12.972   2.648   9.808
 1131W        W 8440  11.016   3.584   8.832
 1132W        W 8441   6.615   6.928   6.437
 1133W        W 8442   5.138   2.663   8.379
 1134W        W 8443   2.728   2.163   7.413
 1135W        W 8444   1.730   0.262   6.916
 1136W        W 8445  17.853   1.708   7.407
 1137W        W 8446  17.845   3.138   0.740
 1138W        W 8447  14.889   8.373   0.744
 1139W        W 8448  13.909   6.458   0.758
 1140W        W 8449   8.577   3.130   8.377
 1141W        W 8450   5.125   6.438   6.908
 1142W        W 8451  16.362   2.146   8.372
 1143W        W 8452  16.380   6.449   9.777
 1144W        W 8453  18.327   8.334   8.372
 1145W        W 8454  14.880   5.501   8.342
 1146W        W 8455   0.251   7.899   8.365
 1147W        W 8456   5.144   7.898   7.896
 1148W        W 8457  18.804   2.659   6.942
 1149W        W 8458   8.545   1.683   0.760
 1150W        W 8459  10.014   9.785   8.373
 1151W        W 8460   7.117   6.946   7.426
 1152W        W 8461  19.790   0.718   7.873
 1153W        W 8462  17.842   4.060   7.383
 1154W        W 8463   5.613   5.999   9.768
 1155W        W 8464  13.933   9.779   9.320
 1156W        W 8465  16.872   9.796   0.256
 1157W        W 8466   4.157   7.871   7.392
 1158W        W 8467   4.653   3.130   5.974
 1159W        W 8468   8.583   7.858   8.818
 1160W        W 8469  17.361   9.807   8.818
 1161W        W 8470   8.558   8.339   0.762
 1162W        W 8471   5.653   4.081   6.445
 1163W        W 8472  17.355   0.254   6.923
 1164W        W 8473  18.340   9.298   8.365
 1165W        W 8474  10.014   6.925   6.941
 1166W        W 8475   8.055   2.146   9.288
 1167W        W 8476  15.867   3.614   9.804
 1168W        W 8477   1.717   4.071   0.264
 1169W        W 8478   5.629   5.966   7.428
 1170W        W 8479   9.036   3.589   6.949
 1171W        W 8480  14.439   7.390   7.402
 1172W        W 8481   9.532   7.868   9.808
 1173W        W 8482  18.813   9.322   5.975
 1174W        W 8483  17.340   3.607   7.886
 1175W        W 8484   6.613   0.263   6.928
 1176W        W 8485   6.593   4.568   0.263
 1177W        W 8486  13.451   5.021   9.291
 1178W        W 8487   9.030   9.320   6.941
 1179W        W 8488   9.528   7.394   0.734
 1180W        W 8489   8.084   4.565   7.872
 1181W        W 8490  18.828   7.422   0.753
 1182W        W 8491  18.336   5.040   6.464
 1183W        W 8492   8.097   1.711   7.864
 1184W        W 8493  16.378   9.289   0.246
 1185W        W 8494  18.319   1.699   7.878
 1186W        W 8495  13.917   5.042   6.459
 1187W        W 8496  13.942   6.471   6.943
 1188W        W 8497  12.467   8.380   9.306
 1189W        W 8498  13.450   3.136   0.743
 1190W        W 8499  10.536   5.987   8.842
 1191W        W 8500  12.483   9.319   8.354
 1192W        W 8501  13.948   0.262   5.960
 1193W        W 8502  13.914   4.534   6.950
 1194W        W 8503  10.979   7.401   5.977
 1195W        W 8504   2.235   6.432   9.330
 1196W        W 8505  10.017   2.175   8.354
 1197W        W 8506  13.437   7.414   6.472
 1198W        W 8507  17.352   4.094   8.367
 1199W        W 8508  13.911   8.348   7.882
 1200W        W 8509  15.882   2.638   6.453
 1201W        W 8510  19.290   4.564   6.948
 1202W        W 8511   5.149   5.492   9.328
 1203W        W 8512  17.356   3.104   7.868
 1204W        W 8513  14.905   8.816   9.306
 1205W        W 8514   4.147   7.904   9.322
 1206W        W 8515   3.197   6.936   6.454
 1207W        W 8516   2.216   5.506   0.241
 1208W        W 8517   4.161   2.640   8.815
 1209W        W 8518  16.843   0.760   8.812
 1210W        W 8519   3.188   7.869   9.764
 1211W        W 8520  19.296   6.909   8.846
 1212W        W 8521  19.805   9.333   7.412
 1213W        W 8522  10.502   9.323   8.828
 1214W        W 8523  13.908   4.063   6.436
 1215W        W 8524  16.861   2.652   8.830
 1216W        W 8525   9.551   1.191   6.443
 1217W        W 8526   6.609   2.641   0.725
 1218W        W 8527  15.898   3.619   0.265
 1219W        W 8528  16.368   2.666   5.971
 1220W        W 8529  17.320   2.660   6.451
 1221W        W 8530   3.696   3.107   6.912
 1222W        W 8531  17.345   5.482   0.246
 1223W        W 8532  12.470   1.699   7.866
 1224W        W 8533  16.845   9.778   8.337
 1225W        W 8534  19.771   3.590   6.467
 1226W        W 8535   1.721   3.610   0.251
 1227W        W 8536   1.228   3.582   6.461
 1228W        W 8537   7.603   6.435   8.846
 1229W        W 8538   6.606   9.764   9.764
 1230W        W 8539   9.072   5.030   7.876
 1231W        W 8540  14.912   3.576   7.408
 1232W        W 8541   8.543   4.540   8.854
 1233W        W 8542  10.010   4.533   8.828
 1234W        W 8543  19.283   9.292   8.345
 1235W        W 8544  10.013   9.296   9.328
 1236W        W 8545  15.862   2.180   6.453
 1237W        W 8546   3.689   9.288   0.734
 1238W        W 8547   8.054   4.546   8.366
 1239W        W 8548   6.123   1.696   0.754
 1240W        W 8549  18.784   5.498   7.894
 1241W        W 8550   0.774   5.976   6.461
 1242W        W 8551  18.798   4.553   9.789
 1243W        W 8552  11.492   0.267   6.927
 1244W        W 8553  10.998   9.807   6.915
 1245W        W 8554  11.467   2.169   0.267
 1246W        W 8555   0.744   3.104   8.850
 1247W        W 8556   1.256   8.344   5.994
 1248W        W 8557   3.207   2.635   9.314
 1249W        W 8558   4.645   6.926   9.797
 1250W        W 8559   5.142   5.018   7.386
 1251W        W 8560   5.636   7.390   7.396
 1252W        W 8561   8.075   4.062   8.377
 1253W        W 8562   3.172   2.628   9.767
 1254W        W 8563  17.826   7.415   6.937
 1255W        W 8564   2.702   4.542   0.277
 1256W        W 8565   8.055   2.161   7.895
 1257W        W 8566   9.559   5.494   5.495
 1258W        W 8567   3.670   4.530   6.949
 1259W        W 8568  12.457   3.573   7.394
 1260W        W 8569   0.279   2.650   9.809
 1261W        W 8570   6.103   0.729   0.277
 1262W        W 8571   7.573   9.775   7.400
 1263W        W 8572   3.193   0.240   6.940
 1264W        W 8573  18.801   1.212   7.411
 1265W        W 8574  16.360   3.118   6.912
 1266W        W 8575  15.890   8.352   7.874
 1267W        W 8576   3.675   6.447   9.311
 1268W        W 8577  10.528   3.587   8.339
 1269W        W 8578  11.964   7.403   8.847
 1270W        W 8579   4.151   3.106   6.946
 1271W        W 8580   3.693   4.048   8.846
 1272W        W 8581   1.734   5.981   8.357
 1273W        W 8582  19.282   6.471   7.893
 1274W        W 8583   9.066   3.590   9.766
 1275W        W 8584   4.176   5.480   7.408
 1276W        W 8585   4.186   4.082   7.871
 1277W        W 8586   6.118   6.948   0.241
 1278W        W 8587  18.315   4.563   9.292
 1279W        W 8588  15.859   4.526   8.815
 1280W        W 8589   9.066   9.300   9.768
 1281W        W 8590   3.187   5.478   5.991
 1282W        W 8591   2.710   9.299   7.902
 1283W        W 8592  14.411   2.626   6.925
 1284W        W 8593   6.594   1.711   6.938
 1285W        W 8594  16.841   5.009   0.729
 1286W        W 8595  19.761   1.196   8.376
 1287W        W 8596   0.248   1.217   8.817
 1288W        W 8597  12.443   5.987   6.474
 1289W        W 8598  15.883   6.905   7.890
 1290W        W 8599   2.211   6.905   5.960
 1291W        W 8600   4.665   4.566   0.750
 1292W        W 8601  12.478   5.042   6.911
 1293W        W 8602  11.994   5.033   9.303
 1294W        W 8603  10.032   0.733   0.757
 1295W        W 8604  14.394   8.822   0.284
 1296W        W 8605   2.214   3.578   6.916
 1297W        W 8606  12.463   2.149   0.732
 1298W        W 8607   9.560   2.171   8.846
 1299W        W 8608   6.118   8.366   0.278
 1300W        W 8609   2.218   0.246   7.866
 1301W        W 8610  11.960   4.048   0.251
 1302W        W 8611   8.051   8.854   9.774
 1303W        W 8612  11.968   3.098   9.792
 1304W        W 8613   6.116   2.637   6.938
 1305W        W 8614   9.521   2.629   0.280
 1306W        W 8615   0.762   2.161   9.320
 1307W        W 8616   8.075   7.388   0.759
 1308W        W 8617  18.341   6.934   6.475
 1309W        W 8618  17.346   3.584   9.287
 1310W        W 8619   9.064   5.037   0.270
 1311W        W 8620   1.251   3.136   0.728
 1312W        W 8621  19.275   4.076   8.838
 1313W        W 8622  11.980   9.780   6.939
 1314W        W 8623  18.823   3.113   0.250
 1315W        W 8624   3.205   7.874   8.362
 1316W        W 8625  12.450   1.237   8.350
 1317W        W 8626   0.737   3.583   7.400
 1318W        W 8627  19.309   2.168   6.448
 1319W        W 8628  11.488   4.526   7.391
 1320W        W 8629   9.045   8.376   9.800
 1321W        W 8630  18.319   0.743   7.873
 1322W        W 8631   2.696   6.942   7.421
 1323W        W 8632  10.028   6.444   7.391
 1324W        W 8633   1.723   2.637   9.770
 1325W        W 8634  12.961   8.373   6.463
 1326W        W 8635  13.931   3.118   7.404
 1327W        W 8636  14.883   1.222   7.877
 1328W        W 8637   8.542   7.396   5.993
 1329W        W 8638   0.751   5.518   0.741
 1330W        W 8639  16.855   0.282   6.442
 1331W        W 8640   9.049   0.253   6.917
 1332W        W 8641  11.482   0.761   8.827
 1333W        W 8642  13.455   2.624   7.409
 1334W        W 8643  19.273   1.222   6.939
 1335W        W 8644   0.747   8.829   8.338
 1336W        W 8645  17.317   6.430   9.765
 1337W        W 8646  10.535   6.922   8.839
 1338W        W 8647  10.994   8.357   6.450
 1339W        W 8648   2.727   7.859   8.375
 1340W        W 8649  15.403   1.667   8.848
 1341W        W 8650  14.884   7.861   6.936
 1342W        W 8651  13.441   0.252   6.946
 1343W        W 8652  15.382   7.884   9.806
 1344W        W 8653  14.409   3.098   7.867
 1345W        W 8654   8.581   7.888   0.255
 1346W        W 8655  15.881   4.081   6.456
 1347W        W 8656  14.917   6.439   6.450
 1348W        W 8657  15.407   5.982   6.443
 1349W        W 8658   2.702   5.981   9.287
 1350W        W 8659  10.535   1.674   8.344
 1351W        W 8660   5.627   8.340   0.281
 1352W        W 8661   4.192   8.849   9.790
 1353W        W 8662   1.722   1.675   7.872
 1354W        W 8663  10.014   6.945   8.855
 1355W        W 8664   6.125   7.900   6.435
 1356W        W 8665  14.896   2.650   6.939
 1357W        W 8666  14.419   5.005   9.780
 1358W        W 8667  14.431   8.378   6.908
 1359W        W 8668   5.129   1.216   0.270
 1360W        W 8669  15.406   2.644   6.913
 1361W        W 8670  19.303   3.105   6.436
 1362W        W 8671   8.067   9.807   9.295
 1363W        W 8672   1.707   0.746   6.449
 1364W        W 8673  16.379   5.011   6.449
 1365W        W 8674   6.598   9.330   0.736
 1366W        W 8675   7.122   0.750   6.952
 1367W        W 8676   2.699   6.927   6.931
 1368W        W 8677   3.690   0.270   8.826
 1369W        W 8678   7.084   8.825   9.800
 1370W        W 8679   8.068   3.591   8.333
 1371W        W 8680   9.524   1.196   8.361
 1372W        W 8681  15.383   5.000   9.805
 1373W        W 8682  19.774   2.147   7.382
 1374W        W 8683  16.365   6.469   5.989
 1375W        W 8684   2.698   7.425   8.855
 1376W        W 8685   0.284   2.172   0.723
 1377W        W 8686   2.727   6.460   9.331
 1378W        W 8687  11.971   1.208   8.827
 1379W        W 8688   7.112   2.648   6.912
 1380W        W 8689   3.202   1.235   7.899
 1381W        W 8690   3.198   5.507   0.751
 1382W        W 8691   2.714   4.068   6.919
 1383W        W 8692   4.147   7.417   7.894
 1384W        W 8693   3.664   5.985   7.899
 1385W        W 8694  14.429   9.776   7.888
 1386W        W 8695   6.125   3.605   7.425
 1387W        W 8696   1.230   7.381   8.816
 1388W        W 8697  19.763   6.443   7.860
 1389W        W 8698   8.052   1.223   6.952
 1390W        W 8699  16.876   8.362   9.303
 1391W        W 8700  15.873   5.488   9.770
 1392W        W 8701  12.950   4.564   8.369
 1393W        W 8702  18.303   5.997   6.474
 1394W        W 8703  11.491   2.657   9.325
 1395W        W 8704   3.696   0.727   0.746
 1396W        W 8705  19.793   6.936   8.356
 1397W        W 8706  18.299   8.822   7.893
 1398W        W 8707  10.021   5.961   7.401
 1399W        W 8708  19.768   7.884   9.327
 1400W        W 8709   8.570   2.164   5.974
 1401W        W 8710  10.004   5.488   6.951
 1402W        W 8711   1.249   8.829   0.721
 1403W        W 8712  13.904   7.417   0.726
 1404W        W 8713   3.194   6.472   8.813
 1405W        W 8714  16.833   5.981   8.835
 1406W        W 8715  10.526   1.208   8.838
 1407W        W 8716  10.522   4.556   9.313
 1408W        W 8717   5.149   4.055   9.323
 1409W        W 8718   2.716   5.479   8.842
 1410W        W 8719   9.552   3.599   9.770
 1411W        W 8720  10.510   3.120   9.802
 1412W        W 8721  13.919   1.234   9.782
 1413W        W 8722   9.559   5.480   7.902
 1414W        W 8723   8.073   6.451   7.893
 1415W        W 8724  19.313   5.986   0.753
 1416W        W 8725   3.662   0.254   6.908
 1417W        W 8726   1.736   0.264   6.458
 1418W        W 8727  16.845   8.816   7.886
 1419W        W 8728  19.296   8.852   0.256
 1420W        W 8729   7.608   4.541   8.845
 1421W        W 8730   9.039   8.377   6.468
 1422W        W 8731  10.522   0.749   7.898
 1423W        W 8732   2.215   2.149   7.404
 1424W        W 8733  19.307   6.454   8.817
 1425W        W 8734  11.492   4.551   0.724
 1426W        W 8735  14.888   0.738   8.333
 1427W        W 8736  18.314   3.135   9.788
 1428W        W 8737  15.861   8.380   8.373
 1429W        W 8738   8.575   3.135   6.932
 1430W        W 8739  15.401   7.899   8.343
 1431W        W 8740  10.498   9.775   8.345
 1432W        W 8741  12.477   0.760   8.362
 1433W        W 8742   6.590   6.932   8.376
 1434W        W 8743   8.576   5.040   7.902
 1435W        W 8744  19.794   0.741   8.854
 1436W        W 8745   7.603   2.167   6.445
 1437W        W 8746  13.903   0.726   7.894
 1438W        W 8747   2.703   5.493   7.393
 1439W        W 8748  17.823   4.062   6.936
 1440W        W 8749  13.942   8.835   8.820
 1441W        W 8750  10.031   6.931   6.430
 1442W        W 8751   3.687   7.413   8.820
 1443W        W 8752  10.003   3.580   1.203
 1444W        W 8753  12.928   8.840   7.885
 1445W        W 8754  13.458   8.343   0.723
 1446W        W 8755  19.757   6.445   8.847
 1447W        W 8756  12.472   2.632   8.853
 1448W        W 8757  15.370   8.381   6.457
 1449W        W 8758  12.488   3.125   6.469
 1450W        W 8759   8.097   7.883   0.275
 1451W        W 8760   1.253   2.145   0.760
 1452W        W 8761   4.664   2.188   8.857
 1453W        W 8762   6.595   4.050   6.444
 1454W        W 8763   4.677   8.835   8.824
 1455W        W 8764  12.945   2.152   0.282
 1456W        W 8765   3.690   8.339   8.356
 1457W        W 8766  10.035   9.781   7.385
 1458W        W 8767   5.133   1.676   8.342
 1459W        W 8768   2.227   9.329   5.953
 1460W        W 8769   5.650   4.555   7.880
 1461W        W 8770  16.862   9.786   8.856
 1462W        W 8771   3.689   7.421   0.260
 1463W        W 8772  10.036   3.595   0.252
 1464W        W 8773  15.877   0.755   9.772
 1465W        W 8774  10.493   1.688   6.441
 1466W        W 8775   4.162   4.051   6.935
 1467W        W 8776  10.012   3.612   0.761
 1468W        W 8777  11.979   5.019   0.238
 1469W        W 8778  10.048   3.097   7.902
 1470W        W 8779  17.835   4.552   0.734
 1471W        W 8780   5.123   5.502   9.806
 1472W        W 8781   7.087   0.246   0.246
 1473W        W 8782  18.799   9.764   7.413
 1474W        W 8783   8.060   2.662   8.354
 1475W        W 8784  13.904   7.859   8.373
 1476W        W 8785  19.315   8.821   5.964
 1477W        W 8786   8.077   5.044   7.396
 1478W        W 8787   8.544   6.943   6.947
 1479W        W 8788   6.606   3.586   6.433
 1480W        W 8789   4.670   5.510   9.333
 1481W        W 8790  11.499   8.820   6.444
 1482W        W 8791  14.431   1.696   8.339
 1483W        W 8792  16.840   4.527   7.411
 1484W        W 8793  17.852   5.498   7.891
 1485W        W 8794   6.598   2.149   6.941
 1486W        W 8795   7.110   4.563   9.797
 1487W        W 8796   3.667   0.717   9.780
 1488W        W 8797  19.285   5.513   6.944
 1489W        W 8798  15.413   7.403   7.418
 1490W        W 8799   8.070   7.414   8.371
 1491W        W 8800  17.829   2.649   8.361
 1492W        W 8801   4.182   7.886   8.339
 1493W        W 8802   4.677   8.379   9.794
 1494W        W 8803  15.382   0.282   0.726
 1495W        W 8804  10.042   9.295   7.392
 1496W        W 8805   2.717   8.357   7.892
 1497W        W 8806   2.214   6.932   0.726
 1498W        W 8807  14.415   1.227   6.474
 1499W        W 8808   3.196   2.635   6.927
 1500W        W 8809  17.832   0.725   6.941
 1501W        W 8810  15.377   6.454   9.304
 1502W        W 8811  18.301   6.463   8.842
 1503W        W 8812  17.849   3.603   8.355
 1504W        W 8813   9.517   2.177   0.262
 1505W        W 8814   1.717   3.103   9.308
 1506W        W 8815   6.600   1.197   9.308
 1507W        W 8816   9.527   7.396   6.469
 1508W        W 8817  10.505   1.674   7.405
 1509W        W 8818  16.847   7.416   8.368
 1510W        W 8819   4.639   0.245   7.386
 1511W        W 8820  15.379   0.284   9.803
 1512W        W 8821   9.541   3.106   9.783
 1513W        W 8822  17.358   2.620   8.368
 1514W        W 8823   5.162   5.974   7.858
 1515W        W 8824  15.380   3.127   8.830
 1516W        W 8825   4.158   8.339   8.365
 1517W        W 8826   4.173   8.379   9.807
 1518W        W 8827  10.014   4.083   6.433
 1519W        W 8828   3.668   8.831   6.430
 1520W        W 8829  11.018   2.647   7.882
 1521W        W 8830   2.223   3.572   0.272
 1522W        W 8831  19.294   5.515   9.325
 1523W        W 8832  10.490   0.755   0.716
 1524W        W 8833  16.850   3.114   7.872
 1525W        W 8834   9.533   7.392   7.418
 1526W        W 8835  17.319   2.171   8.364
 1527W        W 8836  12.936   2.661   0.252
 1528W        W 8837   4.148   8.835   9.333
 1529W        W 8838  10.530   3.595   6.446
 1530W        W 8839  18.335   7.386   8.828
 1531W        W 8840  12.443   2.646   9.774
 1532W        W 8841   5.161   3.102   9.800
 1533W        W 8842   1.736   5.001   8.336
 1534W        W 8843   1.247   7.387   6.913
 1535W        W 8844   2.213   5.011   7.400
 1536W        W 8845   0.290   8.834   7.413
 1537W        W 8846  13.922   4.076   7.893
 1538W        W 8847  10.004   3.606   5.975
 1539W        W 8848  14.879   0.258   6.935
 1540W        W 8849   5.647   4.083   0.723
 1541W        W 8850  13.908   6.909   6.447
 1542W        W 8851  12.446   7.408   5.976
 1543W        W 8852   8.556   0.741   8.821
 1544W        W 8853   9.048   5.969   7.899
 1545W        W 8854   8.555   2.666   0.253
 1546W        W 8855   7.118   2.185   9.310
 1547W        W 8856   8.089   6.474   7.414
 1548W        W 8857  19.287   7.862   9.772
 1549W        W 8858   5.168   8.853   9.771
 1550W        W 8859   3.202   6.906   0.273
 1551W        W 8860  13.923   1.225   6.926
 1552W        W 8861   3.672   2.183   0.258
 1553W        W 8862   6.132   6.932   7.870
 1554W        W 8863  11.018   6.942   6.471
 1555W        W 8864  12.447   3.105   0.725
 1556W        W 8865  18.810   6.906   9.799
 1557W        W 8866  13.944   4.539   8.835
 1558W        W 8867  14.413   0.747   7.887
 1559W        W 8868   3.677   7.899   7.897
 1560W        W 8869   1.747   8.828   0.246
 1561W        W 8870  14.415   5.516   7.411
 1562W        W 8871   3.694   9.311   7.399
 1563W        W 8872   3.200   1.236   6.936
 1564W        W 8873  10.033   7.409   0.746
 1565W        W 8874   8.080   3.585   7.875
 1566W        W 8875  16.875   2.174   6.473
 1567W        W 8876  14.434   5.037   6.457
 1568W        W 8877  19.305   2.161   9.331
 1569W        W 8878  18.787   9.771   9.765
 1570W        W 8879   9.550   6.936   0.747
 1571W        W 8880   5.159   0.717   8.342
 1572W        W 8881  15.391   2.651   7.866
 1573W        W 8882   2.218   5.041   7.883
 1574W        W 8883  14.912   5.969   9.323
 1575W        W 8884  19.764   8.817   8.335
 1576W        W 8885   1.731   6.453   5.999
 1577W        W 8886   2.694   3.579   9.790
 1578W        W 8887  15.889   3.120   9.771
 1579W        W 8888  10.038   1.209   9.292
 1580W        W 8889  14.886   2.652   7.895
 1581W        W 8890   3.174   5.515   8.819
 1582W        W 8891  13.922   3.116   9.299
 1583W        W 8892   7.606   9.795   7.862
 1584W        W 8893  19.273   0.718   9.295
 1585W        W 8894   7.598   7.401   7.399
 1586W        W 8895   6.139   6.918   9.800
 1587W        W 8896   9.538   7.863   7.864
 1588W        W 8897  19.304   6.463   0.252
 1589W        W 8898   3.204   2.641   8.835
 1590W        W 8899  17.807   2.650   9.766
 1591W        W 8900  15.871   5.521   0.758
 1592W        W 8901  18.821   9.784   9.297
 1593W        W 8902   1.249   7.886   0.745
 1594W        W 8903  19.762   7.874   9.807
 1595W        W 8904  15.367   9.312   0.243
 1596W        W 8905   8.575   6.923   0.272
 1597W        W 8906   8.063   3.584   8.847
 1598W        W 8907   2.696   3.115   8.856
 1599W        W 8908   0.737   5.026   7.393
 1600W        W 8909  16.868   6.464   0.736
 1601W        W 8910   2.225   2.660   0.737
 1602W        W 8911   8.062   4.075   0.732
 1603W        W 8912  18.785   8.338   0.241
 1604W        W 8913   2.218   9.784   6.470
 1605W        W 8914  19.297   1.687   0.718
 1606W        W 8915   6.139   5.021   6.437
 1607W        W 8916  10.019   8.856   6.922
 1608W        W 8917  17.814   3.601   0.717
 1609W        W 8918   3.197   5.035   7.872
 1610W        W 8919   0.278   9.769   0.719
 1611W        W 8920   0.290   0.717   6.945
 1612W        W 8921  10.001   4.559   5.964
 1613W        W 8922   5.622   0.722   0.745
 1614W        W 8923   7.103   7.417   9.296
 1615W        W 8924  10.015   7.879   8.852
 1616W        W 8925  18.325   9.809   0.282
 1617W        W 8926  18.826   6.435   9.312
 1618W        W 8927  13.451   6.441   9.785
 1619W        W 8928   7.574   5.015   0.282
 1620W        W 8929  14.390   7.420   6.928
 1621W        W 8930  18.310   2.650   7.895
 1622W        W 8931  18.792   5.996   6.433
 1623W        W 8932   6.605   0.724   6.471
 1624W        W 8933  17.844   1.222   0.250
 1625W        W 8934   2.712   5.495   0.273
 1626W        W 8935  19.288   1.201   0.760
 1627W        W 8936   9.026   8.820   0.267
 1628W        W 8937   8.049   7.885   9.798
 1629W        W 8938   5.643   2.634   9.788
 1630W        W 8939  10.029   9.796   6.470
 1631W        W 8940   1.257   0.726   7.415
 1632W        W 8941  13.423   9.293   7.391
 1633W        W 8942  14.924   9.781   8.365
 1634W        W 8943  12.443   2.659   6.925
 1635W        W 8944  13.460   4.089   9.805
 1636W        W 8945  18.800   9.311   9.326
 1637W        W 8946  19.274   0.272   0.255
 1638W        W 8947   5.656   5.000   7.872
 1639W        W 8948  10.987   0.721   7.398
 1640W        W 8949   3.181   2.164   6.443
 1641W        W 8950   5.652   5.512   8.359
 1642W        W 8951  16.856   5.036   0.263
 1643W        W 8952  13.918   9.301   9.300
 1644W        W 8953  12.941   2.155   7.408
 1645W        W 8954   0.774   1.231   9.782
 1646W        W 8955  19.312   4.571   0.262
 1647W        W 8956  11.487   2.147   8.365
 1648W        W 8957   6.126   5.004   9.298
 1649W        W 8958  18.796   8.369   9.332
 1650W        W 8959   6.136   4.548   9.776
 1651W        W 8960  14.437   8.341   6.444
 1652W        W 8961  15.411   7.397   9.783
 1653W        W 8962   8.585   8.360   8.819
 1654W        W 8963   3.667   4.067   9.302
 1655W        W 8964   1.726   4.068   7.424
 1656W        W 8965  10.529   6.913   9.318
 1657W        W 8966   4.181   5.022   7.406
 1658W        W 8967   8.078   9.806   6.941
 1659W        W 8968   7.607   3.096   9.289
 1660W        W 8969   5.641   7.386   8.347
 1661W        W 8970   5.616   1.198   7.885
 1662W        W 8971  10.497   3.111   7.869
 1663W        W 8972  14.392   8.819   6.470
 1664W        W 8973  14.908   6.920   9.768
 1665W        W 8974  14.893   3.584   8.854
 1666W        W 8975  18.308   7.407   0.281
 1667W        W 8976  11.996   0.259   0.728
 1668W        W 8977  15.385   0.254   6.459
 1669W        W 8978  19.295   9.296   8.855
 1670W        W 8979   6.118   5.990   0.760
 1671W        W 8980  17.329   1.689   0.749
 1672W        W 8981   7.579   8.841   9.289
 1673W        W 8982   9.057   1.199   7.902
 1674W        W 8983  11.982   1.695   7.410
 1675W        W 8984   3.216   9.301   9.809
 1676W        W 8985  12.442   2.190   0.264
 1677W        W 8986  18.781   7.410   9.295
 1678W        W 8987   7.581   1.685   6.440
 1679W        W 8988  13.919   9.806   0.730
 1680W        W 8989  16.357   7.895   0.744
 1681W        W 8990   3.172   9.775   6.000
 1682W        W 8991  12.935   0.750   7.387
 1683W        W 8992   7.599   6.436   7.864
 1684W        W 8993  19.759   7.383   8.832
 1685W        W 8994   3.202   6.442   6.449
 1686W        W 8995   5.168   6.457   9.326
 1687W        W 8996   3.174   8.360   5.994
 1688W        W 8997  19.311   3.593   7.863
 1689W        W 8998   4.158   0.729   6.939
 1690W        W 8999   3.182   5.520   7.427
 1691W        W 9000  19.804   4.071   9.773
 1692W        W 9001   0.761   4.061   0.255
 1693W        W 9002   2.225   5.955   7.892
 1694W        W 9003  10.044   7.381   9.805
 1695W        W 9004   4.151   4.534   0.253
 1696W        W 9005  13.910   5.015   8.821
 1697W        W 9006  13.456   0.757   0.272
 1698W        W 9007  17.364   5.003   8.833
 1699W        W 9008  14.431   2.178   8.346
 1700W        W 9009  19.760   2.627   6.445
 1701W        W 9010  10.536   3.103   9.331
 1702W        W 9011  11.497   7.397   0.273
 1703W        W 9012  15.409   4.561   8.349
 1704W        W 9013   1.240   2.632   7.384
 1705W        W 9014  16.848   3.590   7.414
 1706W        W 9015  13.457   8.351   6.468
 1707W        W 9016   4.162   7.877   6.470
 1708W        W 9017  19.802   6.470   7.418
 1709W        W 9018  14.915   7.899   0.749
 1710W        W 9019  12.459   5.017   7.404
 1711W        W 9020  11.493   9.319   7.882
 1712W        W 9021  10.991   7.886   6.449
 1713W        W 9022  11.496   5.012   7.417
 1714W        W 9023  11.996   2.653   7.878
 1715W        W 9024   2.712   0.285   0.245
 1716W        W 9025  18.783   6.463   6.939
 1717W        W 9026   1.750   6.937   7.859
 1718W        W 9027  16.838   5.490   0.739
 1719W        W 9028   2.197   2.148   6.942
 1720W        W 9029  18.321   4.545   8.352
 1721W        W 9030   9.025   7.398   7.423
 1722W        W 9031   4.192   6.910   9.776
 1723W        W 9032  14.895   2.156   7.386
 1724W        W 9033  11.511   6.437   6.458
 1725W        W 9034   4.680   3.589   7.902
 1726W        W 9035  13.425   7.388   8.360
 1727W        W 9036  13.928   5.962   0.727
 1728W        W 9037   1.732   8.834   0.733
 1729W        W 9038   4.636   2.646   7.871
 1730W        W 9039   7.113   7.893   8.345
 1731W        W 9040  11.488   5.009   9.787
 1732W        W 9041  11.486   4.056   6.916
 1733W        W 9042   1.754   4.533   7.402
 1734W        W 9043   1.232   2.175   7.393
 1735W        W 9044  19.792   6.434   6.908
 1736W        W 9045   0.246   5.024   8.361
 1737W        W 9046   5.125   0.256   8.857
 1738W        W 9047  14.419   0.283   0.276
 1739W        W 9048   2.702   4.553   8.368
 1740W        W 9049   5.138   3.615   9.326
 1741W        W 9050  15.890   2.642   8.834
 1742W        W 9051   6.126   0.278   0.271
 1743W        W 9052  12.474   7.406   7.895
 1744W        W 9053  15.383   0.751   6.463
 1745W        W 9054  19.758   3.612   9.286
 1746W        W 9055   8.077   2.638   8.824
 1747W        W 9056  19.786   3.597   8.815
 1748W        W 9057  16.360   4.059   6.456
 1749W        W 9058  11.005   7.401   9.308
 1750W        W 9059   8.066   2.649   9.302
 1751W        W 9060   4.187   6.920   0.276
 1752W        W 9061  14.415   0.255   9.801
 1753W        W 9062  13.938   1.698   7.864
 1754W        W 9063   5.144   6.948   6.448
 1755W        W 9064   6.629   8.845   8.340
 1756W        W 9065   2.220   0.759   9.310
 1757W        W 9066   1.752   2.158   7.426
 1758W        W 9067  15.396   0.758   9.797
 1759W        W 9068  17.845   3.126   8.854
 1760W        W 9069   2.233   1.696   9.795
 1761W        W 9070   2.720   7.420   7.424
 1762W        W 9071   6.120   0.246   6.462
 1763W        W 9072   1.733   1.202   8.377
 1764W        W 9073   4.179   4.558   6.468
 1765W        W 9074  15.401   9.776   8.826
 1766W        W 9075   9.046   7.879   0.755
 1767W        W 9076   3.671   4.069   0.726
 1768W        W 9077   1.263   3.123   6.948
 1769W        W 9078   1.713   5.957   0.724
 1770W        W 9079   7.585   4.089   7.391
 1771W        W 9080   0.745   4.086   0.761
 1772W        W 9081  17.815   5.985   8.829
 1773W        W 9082   8.062   0.741   7.423
 1774W        W 9083   9.515   1.703   9.328
 1775W        W 9084  14.418   5.486   8.348
 1776W        W 9085  11.985   7.892   7.402
 1777W        W 9086   5.649   2.628   8.344
 1778W        W 9087   7.101   1.214   6.446
 1779W        W 9088  11.995   2.144   8.855
 1780W        W 9089  10.041   2.640   7.384
 1781W        W 9090  11.962   7.414   9.306
 1782W        W 9091  12.464   6.907   7.895
 1783W        W 9092  14.911   7.408   0.238
 1784W        W 9093  17.320   1.228   8.343
 1785W        W 9094   5.636   7.385   8.842
 1786W        W 9095  11.972   2.636   6.436
 1787W        W 9096  19.273   6.441   0.727
 1788W        W 9097  16.388   1.706   8.342
 1789W        W 9098   4.192   5.964   0.267
 1790W        W 9099   5.623   9.765   9.785
 1791W        W 9100   5.621   6.450   8.847
 1792W        W 9101   1.255   6.467   6.925
 1793W        W 9102  11.980   0.725   8.354
 1794W        W 9103   7.607   4.542   6.473
 1795W        W 9104   9.026   6.941   0.752
 1796W        W 9105   8.557   9.310   8.369
 1797W        W 9106  10.492   6.436   6.433
 1798W        W 9107  16.834   0.728   9.299
 1799W        W 9108   5.644   1.211   8.379
 1800W        W 9109  13.903   7.883   9.302
 1801W        W 9110  16.364   6.431   1.227
 1802W        W 9111  13.430   4.051   9.304
 1803W        W 9112   7.077   3.601   9.287
 1804W        W 9113  19.290   9.800   8.836
 1805W        W 9114   8.563   8.335   0.251
 1806W        W 9115   1.737   5.033   0.280
 1807W        W 9116   7.118   9.778   7.878
 1808W        W 9117  10.017   5.478   7.891
 1809W        W 9118  18.330   8.338   6.909
 1810W        W 9119   0.253   8.366   0.271
 1811W        W 9120  16.377   7.863   7.411
 1812W        W 9121   7.099   1.675   6.440
 1813W        W 9122   4.185   7.413   0.750
 1814W        W 9123  16.382   6.466   9.299
 1815W        W 9124   9.521   4.560   7.865
 1816W        W 9125   7.078   3.141   0.270
 1817W        W 9126  10.040   6.935   0.273
 1818W        W 9127  11.966   7.874   7.882
 1819W        W 9128  17.335   3.602   8.810
 1820W        W 9129   1.732   9.784   8.378
 1821W        W 9130  11.494   3.127   7.420
 1822W        W 9131  10.499   7.407   0.273
 1823W        W 9132   2.200   5.993   7.422
 1824W        W 9133  18.332   6.433   9.301
 1825W        W 9134  15.900   5.483   5.962
 1826W        W 9135   8.551   1.687   8.836
 1827W        W 9136  11.477   5.027   0.271
 1828W        W 9137   9.549   5.487   8.338
 1829W        W 9138   8.582   6.452   0.275
 1830W        W 9139  10.511   5.491   8.836
 1831W        W 9140   2.203   5.043   0.742
 1832W        W 9141   4.642   0.733   9.306
 1833W        W 9142   9.525   9.802   0.724
 1834W        W 9143   7.572   2.639   0.760
 1835W        W 9144   8.572   8.843   6.455
 1836W        W 9145   9.516   4.529   7.388
 1837W        W 9146   1.744   4.569   8.842
 1838W        W 9147  17.823   5.502   8.345
 1839W        W 9148  14.892   8.848   8.355
 1840W        W 9149  17.817   7.877   7.396
 1841W        W 9150  10.502   7.874   0.715
 1842W        W 9151  13.907   4.056   0.745
 1843W        W 9152   2.211   6.447   0.274
 1844W        W 9153   7.080   3.592   9.795
 1845W        W 9154  19.775   5.953   7.901
 1846W        W 9155   6.627   0.759   7.401
 1847W        W 9156  12.440   5.523   9.776
 1848W        W 9157   0.280   5.036   9.325
 1849W        W 9158  19.761   8.837   0.271
 1850W        W 9159  11.473   5.506   9.807
 1851W        W 9160   0.284   9.783   8.817
 1852W        W 9161  10.985   4.092   7.400
 1853W        W 9162  16.832   5.960   7.394
 1854W        W 9163   9.554   9.807   9.788
 1855W        W 9164  10.497   8.349   9.300
 1856W        W 9165  14.417   8.363   9.308
 1857W        W 9166   1.228   4.536   8.355
 1858W        W 9167   6.610   3.097   9.291
 1859W        W 9168   9.051   5.521   9.765
 1860W        W 9169  14.906   2.148   8.357
 1861W        W 9170  16.869   1.218   9.321
 1862W        W 9171  10.501   1.191   0.749
 1863W        W 9172   2.244   5.953   6.440
 1864W        W 9173   0.757   8.339   8.349
 1865W        W 9174   1.718   6.444   0.265
 1866W        W 9175   0.272   5.514   6.454
 1867W        W 9176   0.280   9.789   0.285
 1868W        W 9177   5.136   7.901   8.842
 1869W        W 9178   6.120   7.903   9.318
 1870W        W 9179  11.965   1.668   6.933
 1871W        W 9180   0.759   3.607   6.929
 1872W        W 9181   6.130   3.139   7.390
 1873W        W 9182   6.141   4.535   0.761
 1874W        W 9183   0.749   4.056   9.792
 1875W        W 9184   2.706   9.786   0.277
 1876W        W 9185  18.811   8.831   9.781
 1877W        W 9186   5.167   5.497   6.933
 1878W        W 9187   0.270   1.689   5.972
 1879W        W 9188   9.542   0.239   0.755
 1880W        W 9189   0.278   5.505   9.304
 1881W        W 9190  13.943   2.188   8.817
 1882W        W 9191   9.057   6.440   6.444
 1883W        W 9192  14.901   6.464   9.303
 1884W        W 9193   6.631   1.196   6.466
 1885W        W 9194  11.988   9.772   6.469
 1886W        W 9195   2.231   5.999   8.342
 1887W        W 9196  13.423   1.213   6.939
 1888W        W 9197   6.601   4.083   0.254
 1889W        W 9198   6.105   4.068   1.229
 1890W        W 9199  16.834   6.907   7.880
 1891W        W 9200   9.525   7.419   0.267
 1892W        W 9201   6.614   0.756   9.780
 1893W        W 9202  18.809   5.978   8.817
 1894W        W 9203   5.123   7.419   6.949
 1895W        W 9204   5.123   0.254   9.773
 1896W        W 9205  18.316   5.488   9.322
 1897W        W 9206   8.064   3.131   9.800
 1898W        W 9207   0.252   9.328   5.968
 1899W        W 9208  11.502   3.106   0.733
 1900W        W 9209   4.156   3.112   8.371
 1901W        W 9210   5.150   1.195   6.938
 1902W        W 9211   1.729   8.848   9.781
 1903W        W 9212  17.330   5.503   6.945
 1904W        W 9213   8.056   1.694   0.283
 1905W        W 9214   1.264   5.023   6.476
 1906W        W 9215  10.532   9.774   8.848
 1907W        W 9216  13.452   5.996   8.810
 1908W        W 9217   0.261   9.288   9.315
 1909W        W 9218  19.306   9.795   6.460
 1910W        W 9219  18.310   9.317   9.289
 1911W        W 9220   9.540   9.775   6.939
 1912W        W 9221  19.767   8.369   0.254
 1913W        W 9222   1.243   0.726   9.309
 1914W        W 9223  15.888   5.030   7.896
 1915W        W 9224  16.344   9.799   0.753
 1916W        W 9225  11.971   1.219   9.307
 1917W        W 9226  19.774   5.496   6.429
 1918W        W 9227   8.078   5.504   6.449
 1919W        W 9228  11.013   6.939   8.817
 1920W        W 9229   1.237   1.679   0.242
 1921W        W 9230   1.256   8.343   7.863
 1922W        W 9231  15.368   5.968   9.289
 1923W        W 9232  14.434   7.902   8.846
 1924W        W 9233   5.614   0.744   0.273
 1925W        W 9234  13.923   5.038   6.918
 1926W        W 9235  18.817   0.275   7.403
 1927W        W 9236  10.527   7.868   7.387
 1928W        W 9237  14.920   3.109   7.886
 1929W        W 9238  19.311   6.468   5.966
 1930W        W 9239  16.851   4.093   0.760
 1931W        W 9240  16.366   9.318   5.978
 1932W        W 9241   8.085   7.902   7.402
 1933W        W 9242  11.001   5.015   0.282
 1934W        W 9243  14.424   1.214   7.873
 1935W        W 9244   4.658   9.786   7.878
 1936W        W 9245   0.756   9.322   7.418
 1937W        W 9246  19.800   1.689   0.736
 1938W        W 9247  10.048   5.500   8.345
 1939W        W 9248  19.282   9.796   0.260
 1940W        W 9249  14.921   2.168   9.304
 1941W        W 9250  12.461   3.612   6.457
 1942W        W 9251  13.915   8.850   7.870
 1943W        W 9252   7.603   3.583   9.778
 1944W        W 9253  14.917   0.721   7.416
 1945W        W 9254   6.590   1.705   6.472
 1946W        W 9255   5.620   5.994   6.949
 1947W        W 9256   1.710   1.672   8.361
 1948W        W 9257  19.269   5.517   9.775
 1949W        W 9258  11.954   7.410   8.348
 1950W        W 9259  14.897   9.808   6.919
 1951W        W 9260  17.814   9.318   8.365
 1952W        W 9261  18.316   6.941   9.309
 1953W        W 9262  11.971   5.507   0.736
 1954W        W 9263  17.838   7.892   9.782
 1955W        W 9264  11.976   5.972   9.332
 1956W        W 9265  19.805   0.276   6.936
 1957W        W 9266  13.428   0.277   6.473
 1958W        W 9267   4.151   3.131   9.310
 1959W        W 9268  10.498   3.575   7.864
 1960W        W 9269   1.718   8.841   7.428
 1961W        W 9270  11.952   1.680   0.760
 1962W        W 9271   9.043   4.531   6.944
 1963W        W 9272   9.062   8.853   9.299
 1964W        W 9273  17.332   8.346   9.330
 1965W        W 9274   0.735   2.640   0.727
 1966W        W 9275   3.701   0.759   1.206
 1967W        W 9276  19.802   6.927   0.757
 1968W        W 9277   2.704   0.723   0.285
 1969W        W 9278  13.951   0.736   8.849
 1970W        W 9279  16.342   8.822   7.391
 1971W        W 9280  16.368   4.058   9.302
 1972W        W 9281  17.331   3.101   1.210
 1973W        W 9282   7.101   4.090   9.794
 1974W        W 9283   3.177   7.397   9.325
 1975W        W 9284  19.775   5.498   9.792
 1976W        W 9285  19.774   5.489   8.363
 1977W        W 9286  17.824   8.344   7.423
 1978W        W 9287   1.754   2.189   0.244
 1979W        W 9288  18.320   3.601   6.936
 1980W        W 9289   9.540   3.582   7.879
 1981W        W 9290   3.212   9.807   7.894
 1982W        W 9291  12.480   3.102   6.945
 1983W        W 9292   8.540   4.071   7.881
 1984W        W 9293  17.336   5.480   0.714
 1985W        W 9294   0.259   2.620   6.432
 1986W        W 9295   4.675   7.421   6.920
 1987W        W 9296  10.046   6.435   8.832
 1988W        W 9297  17.808   3.104   9.776
 1989W        W 9298  18.799   1.210   6.472
 1990W        W 9299  17.336   5.963   6.440
 1991W        W 9300  13.945   8.345   8.340
 1992W        W 9301   4.667   7.889   8.359
 1993W        W 9302  17.357   4.053   9.317
 1994W        W 9303  11.969   1.202   8.374
 1995W        W 9304  18.797   7.404   8.822
 1996W        W 9305  10.521   2.636   9.790
 1997W        W 9306  16.345   9.310   8.380
 1998W        W 9307   8.571   7.870   6.459
 1999W        W 9308  13.904   4.554   9.795
 2000W        W 9309   4.656   7.402   8.830
 2001W        W 9310   4.661   1.684   5.967
 2002W        W 9311  19.803   4.075   9.324
 2003W        W 9312   2.730   8.355   9.300
 2004W        W 9313   5.132   6.474   9.790
 2005W        W 9314  16.834   5.021   6.000
 2006W        W 9315   7.609   7.427   7.867
 2007W        W 9316  18.299   9.809   9.777
 2008W        W 9317   0.285   7.386   6.938
 2009W        W 9318  18.829   4.083   5.992
 2010W        W 9319   3.185   8.815   8.842
 2011W        W 9320   9.072   5.504   6.934
 2012W        W 9321  13.460   9.805   6.445
 2013W        W 9322  15.872   6.431   0.261
 2014W        W 9323   3.665   2.643   7.410
 2015W        W 9324   1.742   1.668   1.194
 2016W        W 9325   8.565   5.508   6.949
 2017W        W 9326   7.604   2.644   7.885
 2018W        W 9327  13.442   0.716   9.792
 2019W        W 9328  14.412   8.359   7.394
 2020W        W 9329   6.611   5.037   7.383
 2021W        W 9330   1.716   5.995   6.467
 2022W        W 9331   8.052   3.601   9.765
 2023W        W 9332   7.596   5.981   7.401
 2024W        W 9333  19.805   5.493   8.810
 2025W        W 9334  18.334   7.881   6.455
 2026W        W 9335  19.800   3.135   7.873
 2027W        W 9336  12.937   3.613   0.245
 2028W        W 9337  12.484   0.262   0.758
 2029W        W 9338  12.973   9.316   6.447
 2030W        W 9339  12.463   5.988   9.781
 2031W        W 9340  13.950   4.535   0.752
 2032W        W 9341  13.432   0.263   8.347
 2033W        W 9342  19.282   4.550   7.870
 2034W        W 9343  12.969   1.692   6.949
 2035W        W 9344   2.211   6.905   9.304
 2036W        W 9345  18.784   0.253   9.327
 2037W        W 9346  15.872   8.357   8.819
 2038W        W 9347  15.371   3.593   6.446
 2039W        W 9348   0.756   7.417   0.721
 2040W        W 9349   4.642   8.375   0.255
 2041W        W 9350  16.843   1.208   0.243
 2042W        W 9351   4.188   0.761   0.720
 2043W        W 9352   5.642   8.838   6.432
 2044W        W 9353  14.408   6.942   7.872
 2045W        W 9354  18.823   0.718   8.357
 2046W        W 9355   0.775   7.901   0.748
 2047W        W 9356  13.438   3.618   6.436
 2048W        W 9357   0.749   6.949   8.365
 2049W        W 9358  12.476   9.781   8.830
 2050W        W 9359   6.610   5.017   6.951
 2051W        W 9360  16.836   3.129   8.830
 2052W        W 9361  10.003   6.453   8.334
 2053W        W 9362  19.783   4.049   0.252
 2054W        W 9363  19.773   4.066   6.926
 2055W        W 9364   2.688   2.161   0.722
 2056W        W 9365   8.552   5.998   6.432
 2057W        W 9366  11.468   9.302   6.470
 2058W        W 9367  15.894   8.818   7.386
 2059W        W 9368  10.497   5.035   5.487
 2060W        W 9369   9.034   1.673   7.881
 2061W        W 9370  17.847   3.601   9.763
 2062W        W 9371   3.666   0.246   9.327
 2063W        W 9372   9.033   5.971   6.475
 2064W        W 9373  13.417   8.849   7.402
 2065W        W 9374   1.264   4.068   8.854
 2066W        W 9375  14.395   4.532   0.726
 2067W        W 9376  11.016   2.189   8.845
 2068W        W 9377   3.171   9.329   0.250
 2069W        W 9378   5.639   1.226   0.721
 2070W        W 9379   4.656   5.960   0.246
 2071W        W 9380  13.932   4.058   8.835
 2072W        W 9381  14.404   3.573   7.417
 2073W        W 9382  11.993   0.723   9.333
 2074W        W 9383   6.592   5.009   9.325
 2075W        W 9384   7.602   2.167   9.314
 2076W        W 9385   0.779   5.006   6.464
 2077W        W 9386   1.751   0.251   7.897
 2078W        W 9387  16.873   2.636   7.865
 2079W        W 9388  14.399   0.757   8.341
 2080W        W 9389   1.243   0.281   7.423
 2081W        W 9390  17.358   9.783   6.463
 2082W        W 9391   7.606   0.741   8.815
 2083W        W 9392   0.769   8.825   9.784
 2084W        W 9393  10.022   8.336   9.332
 2085W        W 9394  13.906   5.042   8.340
 2086W        W 9395  13.461   1.683   9.808
 2087W        W 9396   6.589   6.440   8.366
 2088W        W 9397   0.758   8.841   7.885
 2089W        W 9398   4.162   1.218   0.257
 2090W        W 9399   4.677   5.019   9.313
 2091W        W 9400   5.163   5.998   9.791
 2092W        W 9401   0.750   8.379   0.728
 2093W        W 9402  12.480   6.440   9.299
 2094W        W 9403  17.336   8.376   8.336
 2095W        W 9404   4.640   3.114   6.432
 2096W        W 9405   3.662   5.961   7.428
 2097W        W 9406   8.087   3.608   0.761
 2098W        W 9407   8.575   1.230   8.356
 2099W        W 9408  16.873   5.043   6.926
 2100W        W 9409   1.250   2.625   0.269
 2101W        W 9410   0.263   5.511   8.811
 2102W        W 9411   9.043   3.105   6.466
 2103W        W 9412   3.661   5.507   0.718
 2104W        W 9413  19.276   6.446   9.289
 2105W        W 9414  18.825   1.192   0.283
 2106W        W 9415   9.025   7.392   8.828
 2107W        W 9416  11.004   3.582   9.794
 2108W        W 9417  16.354   3.139   0.241
 2109W        W 9418  11.501   4.555   9.766
 2110W        W 9419  15.389   3.100   9.778
 2111W        W 9420  16.840   8.842   0.724
 2112W        W 9421  11.969   8.335   8.827
 2113W        W 9422   9.046   9.803   6.925
 2114W        W 9423  19.296   8.368   7.416
 2115W        W 9424   3.684   6.933   7.879
 2116W        W 9425   1.710   8.343   6.463
 2117W        W 9426  16.349   1.702   8.856
 2118W        W 9427  16.362   2.641   9.792
 2119W        W 9428  19.316   4.064   0.715
 2120W        W 9429  11.022   1.237   7.409
 2121W        W 9430   5.648   7.387   9.805
 2122W        W 9431  19.315   1.220   7.866
 2123W        W 9432  19.768   4.569   0.266
 2124W        W 9433   8.565   4.567   5.972
 2125W        W 9434  10.994   1.675   0.275
 2126W        W 9435   6.101   1.708   8.340
 2127W        W 9436  15.404   4.539   8.848
 2128W        W 9437   8.066   6.938   8.833
 2129W        W 9438  11.988   3.108   7.408
 2130W        W 9439   7.099   5.962   9.308
 2131W        W 9440   3.175   5.992   8.337
 2132W        W 9441  10.019   3.579   7.415
 2133W        W 9442  12.484   4.056   6.444
 2134W        W 9443  15.889   5.962   0.280
 2135W        W 9444  11.470   9.291   0.280
 2136W        W 9445  15.887   9.295   0.246
 2137W        W 9446  19.770   3.582   6.922
 2138W        W 9447   0.251   7.397   0.240
 2139W        W 9448   8.554   9.313   6.906
 2140W        W 9449   4.194   1.680   6.437
 2141W        W 9450   3.668   5.016   9.312
 2142W        W 9451  19.303   1.688   1.212
 2143W        W 9452   7.578   3.113   7.397
 2144W        W 9453   9.559   5.045   7.898
 2145W        W 9454  15.409   1.675   8.339
 2146W        W 9455   3.697   6.446   0.273
 2147W        W 9456   4.173   9.325   7.883
 2148W        W 9457  10.035   9.766   9.295
 2149W        W 9458  12.953   2.624   0.717
 2150W        W 9459  11.007   6.468   9.302
 2151W        W 9460   7.103   5.031   7.386
 2152W        W 9461   1.228   1.672   9.333
 2153W        W 9462   3.701   9.768   9.786
 2154W        W 9463  10.998   3.574   5.954
 2155W        W 9464   4.682   7.393   5.996
 2156W        W 9465  19.280   7.409   7.880
 2157W        W 9466   1.740   4.050   6.939
 2158W        W 9467  19.276   4.058   7.395
 2159W        W 9468  10.010   7.862   7.857
 2160W        W 9469  18.305   1.227   8.370
 2161W        W 9470  19.790   9.286   9.763
 2162W        W 9471  12.935   5.495   6.440
 2163W        W 9472   4.667   3.584   6.928
 2164W        W 9473  13.438   4.533   9.308
 2165W        W 9474  16.830   9.298   9.288
 2166W        W 9475   6.134   3.113   0.737
 2167W        W 9476  10.509   7.402   7.403
 2168W        W 9477  19.269   2.164   0.757
 2169W        W 9478  18.805   2.656   9.788
 2170W        W 9479   6.586   5.005   0.718
 2171W        W 9480  12.471   9.298   6.458
 2172W        W 9481   1.732   0.756   8.359
 2173W        W 9482   6.110   2.176   5.958
 2174W        W 9483   0.281   4.075   9.322
 2175W        W 9484  10.025   6.457   6.944
 2176W        W 9485  16.847   0.747   0.243
 2177W        W 9486   6.610   0.279   9.789
 2178W        W 9487   5.132   0.750   7.402
 2179W        W 9488   4.148   4.565   0.760
 2180W        W 9489  19.280   9.793   9.772
 2181W        W 9490  14.403   4.095   8.368
 2182W        W 9491  10.027   4.524   8.365
 2183W        W 9492  16.376   3.575   0.756
 2184W        W 9493   3.208   9.324   6.445
 2185W        W 9494   0.255   4.530   9.317
 2186W        W 9495  14.899   1.708   6.461
 2187W        W 9496  13.447   6.438   0.718
 2188W        W 9497  15.392   1.701   6.441
 2189W        W 9498   3.195   9.318   0.749
 2190W        W 9499   0.271   2.153   8.854
 2191W        W 9500  13.923   0.272   7.871
 2192W        W 9501   6.115   2.183   8.349
 2193W        W 9502   7.569   2.649   8.846
 2194W        W 9503  18.822   4.542   0.285
 2195W        W 9504  17.841   4.054   9.800
 2196W        W 9505  15.399   9.792   7.423
 2197W        W 9506  11.969   3.577   6.430
 2198W        W 9507   6.137   7.397   8.353
 2199W        W 9508   1.234   5.042   7.869
 2200W        W 9509   1.738   2.175   0.723
 2201W        W 9510  17.813   5.983   7.901
 2202W        W 9511  17.364   6.922   6.446
 2203W        W 9512   7.599   2.187   8.375
 2204W        W 9513   4.645   6.944   8.365
 2205W        W 9514   7.569   2.149   7.875
 2206W        W 9515   5.131   3.604   7.895
 2207W        W 9516   0.779   2.640   9.327
 2208W        W 9517   4.673   8.350   7.869
 2209W        W 9518  16.855   6.465   9.770
 2210W        W 9519   1.749   9.327   9.771
 2211W        W 9520  10.529   8.812   6.929
 2212W        W 9521   7.079   8.342   0.283
 2213W        W 9522  15.411   3.123   6.927
 2214W        W 9523   8.059   9.799   8.339
 2215W        W 9524   8.080   5.483   9.329
 2216W        W 9525  13.931   4.091   5.966
 2217W        W 9526  12.473   0.273   7.867
 2218W        W 9527   0.282   0.742   9.330
 2219W        W 9528  14.425   9.790   8.355
 2220W        W 9529   8.545   6.914   9.785
 2221W        W 9530  18.295   4.058   8.361
 2222W        W 9531  18.793   1.711   9.325
 2223W        W 9532   5.166   9.328   9.310
 2224W        W 9533   1.744   5.489   7.422
 2225W        W 9534  13.945   1.195   7.385
 2226W        W 9535   9.549   0.256   0.240
 2227W        W 9536   2.210   2.153   7.873
 2228W        W 9537   1.732   8.846   8.814
 2229W        W 9538   4.171   6.445   8.372
 2230W        W 9539   5.640   9.809   0.279
 2231W        W 9540   0.736   4.535   0.241
 2232W        W 9541   1.733   3.138   7.881
 2233W        W 9542  12.972   0.262   9.799
 2234W        W 9543   8.563   8.820   8.372
 2235W        W 9544  16.389   6.446   6.905
 2236W        W 9545   2.215   3.124   9.806
 2237W        W 9546   8.542   5.952   8.346
 2238W        W 9547  10.005   7.886   6.916
 2239W        W 9548  13.448   7.901   8.839
 2240W        W 9549  11.024   9.332   0.757
 2241W        W 9550   6.602   2.640   8.837
 2242W        W 9551   4.680   1.677   9.790
 2243W        W 9552  19.307   9.314   0.749
 2244W        W 9553  19.794   5.510   7.886
 2245W        W 9554   1.253   4.072   9.288
 2246W        W 9555   1.265   1.214   8.349
 2247W        W 9556   6.620   3.579   9.790
 2248W        W 9557   9.520   9.780   0.244
 2249W        W 9558  10.511   9.326   5.973
 2250W        W 9559  14.914   0.752   9.331
 2251W        W 9560   3.668   1.701   9.298
 2252W        W 9561   3.199   8.852   6.433
 2253W        W 9562  14.880   2.657   8.376
 2254W        W 9563  10.492   8.342   0.755
 2255W        W 9564  18.784   7.419   6.933
 2256W        W 9565   4.634   6.447   7.878
 2257W        W 9566   7.079   5.026   9.800
 2258W        W 9567   8.573   4.058   0.262
 2259W        W 9568   4.665   3.118   0.277
 2260W        W 9569   7.597   5.509   9.311
 2261W        W 9570   4.649   9.784   6.472
 2262W        W 9571   4.657   7.405   8.355
 2263W        W 9572   8.071   9.328   6.456
 2264W        W 9573  11.005   1.208   0.753
 2265W        W 9574   8.585   4.088   8.360
 2266W        W 9575  13.441   6.941   9.799
 2267W        W 9576  12.927   6.454   0.266
 2268W        W 9577   6.135   9.782   9.793
 2269W        W 9578  19.297   7.868   0.265
 2270W        W 9579  11.017   6.916   6.938
 2271W        W 9580   9.526   0.745   9.791
 2272W        W 9581   5.164   3.608   6.441
 2273W        W 9582   9.533   7.420   7.900
 2274W        W 9583  10.508   5.026   8.354
 2275W        W 9584  17.843   4.569   5.987
 2276W        W 9585   8.057   8.347   7.869
 2277W        W 9586   5.146   7.860   8.378
 2278W        W 9587   7.115   0.716   8.381
 2279W        W 9588  13.431   5.004   7.412
 2280W        W 9589   1.741   4.528   0.754
 2281W        W 9590  13.944   8.336   6.919
 2282W        W 9591  11.474   5.998   6.442
 2283W        W 9592  16.844   5.015   8.817
 2284W        W 9593   8.095   0.280   9.295
 2285W        W 9594   4.148   8.361   6.461
 2286W        W 9595   4.678   0.267   7.879
 2287W        W 9596   7.096   9.301   0.730
 2288W        W 9597   4.193   2.170   6.944
 2289W        W 9598   6.588   0.241   0.753
 2290W        W 9599   2.233   3.611   7.396
 2291W        W 9600  13.461   9.809   7.860
 2292W        W 9601  17.334   4.056   0.249
 2293W        W 9602  11.004   8.355   0.730
 2294W        W 9603  17.832   6.905   5.987
 2295W        W 9604  18.789   9.325   6.441
 2296W        W 9605  10.012   7.418   9.304
 2297W        W 9606   2.711   9.310   8.372
 2298W        W 9607  16.853   5.020   9.788
 2299W        W 9608   1.251   2.154   0.256
 2300W        W 9609  15.863   0.761   0.737
 2301W        W 9610  11.472   8.334   0.741
 2302W        W 9611   2.701   5.985   0.758
 2303W        W 9612  18.305   7.415   6.442
 2304W        W 9613   2.723   5.010   6.470
 2305W        W 9614   0.261   8.817   8.850
 2306W        W 9615   5.150   2.631   6.460
 2307W        W 9616  11.492   8.840   9.319
 2308W        W 9617   4.677   1.228   0.760
 2309W        W 9618  17.351   6.930   7.897
 2310W        W 9619  12.446   7.421   9.317
 2311W        W 9620   1.748   6.439   9.314
 2312W        W 9621  18.312   7.869   9.318
 2313W        W 9622  12.479   9.298   7.890
 2314W        W 9623  10.030   0.246   8.341
 2315W        W 9624  19.778   7.412   0.276
 2316W        W 9625   9.051   1.232   7.393
 2317W        W 9626  16.870   5.975   9.784
 2318W        W 9627   2.691   8.348   6.445
 2319W        W 9628  17.824   8.336   8.821
 2320W        W 9629   5.658   4.061   9.808
 2321W        W 9630  11.960   4.063   7.865
 2322W        W 9631  11.009   5.023   6.930
 2323W        W 9632  14.889   4.094   0.753
 2324W        W 9633  17.812   3.580   7.886
 2325W        W 9634   7.108   6.443   8.356
 2326W        W 9635  16.385   5.017   8.818
 2327W        W 9636  13.924   3.126   7.899
 2328W        W 9637  11.464   0.725   6.941
 2329W        W 9638  14.895   8.360   9.803
 2330W        W 9639   9.062   1.224   8.839
 2331W        W 9640  11.503   0.746   6.463
 2332W        W 9641   5.628   4.075   6.913
 2333W        W 9642  10.036   6.928   8.352
 2334W        W 9643  15.883   8.843   6.932
 2335W        W 9644   1.255   2.639   8.855
 2336W        W 9645   2.241   7.392   8.839
 2337W        W 9646   9.546   2.658   7.410
 2338W        W 9647  12.478   9.315   7.387
 2339W        W 9648   0.770   4.538   8.335
 2340W        W 9649   4.679   0.259   0.272
 2341W        W 9650  10.988   2.651   0.279
 2342W        W 9651   2.702   1.697   6.432
 2343W        W 9652  18.307   3.597   9.322
 2344W        W 9653   6.602   7.419   8.834
 2345W        W 9654   0.249   1.681   6.472
 2346W        W 9655   0.733   1.687   9.809
 2347W        W 9656   8.557   2.631   8.376
 2348W        W 9657  10.506   5.491   7.887
 2349W        W 9658  17.360   0.282   6.465
 2350W        W 9659  17.360   5.001   0.730
 2351W        W 9660  11.964   5.024   6.435
 2352W        W 9661   5.637   7.869   9.771
 2353W        W 9662  14.900   3.593   0.281
 2354W        W 9663   1.728   6.908   8.853
 2355W        W 9664   0.278   2.166   7.896
 2356W        W 9665   8.547   9.809   0.263
 2357W        W 9666   2.716   9.775   9.309
 2358W        W 9667  17.328   4.053   6.441
 2359W        W 9668  10.528   0.719   9.304
 2360W        W 9669  11.961   3.117   6.461
 2361W        W 9670  15.378   9.808   6.465
 2362W        W 9671   4.176   1.235   9.798
 2363W        W 9672  11.472   5.994   6.945
 2364W        W 9673  11.974   8.342   0.250
 2365W        W 9674   4.655   1.676   7.869
 2366W        W 9675  11.989   6.949   7.867
 2367W        W 9676  19.310   0.239   7.870
 2368W        W 9677   1.240   7.424   0.283
 2369W        W 9678   2.201   8.851   9.301
 2370W        W 9679  10.978   1.201   6.909
 2371W        W 9680  18.320   2.154   7.883
 2372W        W 9681   2.698   3.138   7.413
 2373W        W 9682   1.750   0.717   9.291
 2374W        W 9683  14.425   8.353   0.243
 2375W        W 9684   2.241   4.076   6.933
 2376W        W 9685   7.101   0.279   6.936
 2377W        W 9686   7.568   2.629   6.941
 2378W        W 9687  19.777   1.710   7.392
 2379W        W 9688  17.333   2.662   7.896
 2380W        W 9689   4.670   4.560   7.409
 2381W        W 9690  18.792   4.057   8.338
 2382W        W 9691  19.271   1.700   7.897
 2383W        W 9692   4.639   9.321   1.229
 2384W        W 9693  19.286   5.482   7.409
 2385W        W 9694  12.467   7.895   9.779
 2386W        W 9695  12.952   3.110   9.766
 2387W        W 9696  13.429   4.069   7.900
 2388W        W 9697   3.659   2.162   6.470
 2389W        W 9698   4.170   5.522   8.817
 2390W        W 9699   9.535   9.312   6.429
 2391W        W 9700   2.712   3.123   6.469
 2392W        W 9701  17.825   1.690   8.850
 2393W        W 9702  12.960   4.053   0.731
 2394W        W 9703  16.837   7.888   7.869
 2395W        W 9704  18.337   3.107   7.421
 2396W        W 9705  12.960   5.046   7.887
 2397W        W 9706  12.949   7.411   8.353
 2398W        W 9707   1.241   6.952   8.339
 2399W        W 9708   7.569   5.505   8.819
 2400W        W 9709  10.996   0.251   9.300
 2401W        W 9710   3.686   0.755   8.824
 2402W        W 9711   6.145   5.995   6.946
 2403W        W 9712  10.011   5.010   0.738
 2404W        W 9713  18.324   8.841   7.399
 2405W        W 9714  18.314   3.574   8.855
 2406W        W 9715   4.180   5.042   6.443
 2407W        W 9716   5.618   5.032   6.436
 2408W        W 9717  10.534   4.544   0.247
 2409W        W 9718   2.710   9.315   8.855
 2410W        W 9719  18.818   0.751   0.753
 2411W        W 9720  13.432   4.054   6.460
 2412W        W 9721   0.750   9.330   8.366
 2413W        W 9722  11.993   7.404   0.741
 2414W        W 9723  13.456   9.293   6.435
 2415W        W 9724   0.285   9.770   9.768
 2416W        W 9725  15.375   6.442   8.826
 2417W        W 9726   7.587   0.273   9.308
 2418W        W 9727   8.555   5.483   5.979
 2419W        W 9728   7.585   4.071   0.740
 2420W        W 9729  17.825   7.901   7.885
 2421W        W 9730  11.504   0.746   7.873
 2422W        W 9731  16.877   4.538   8.379
 2423W        W 9732   3.199   3.140   0.274
 2424W        W 9733  14.436   9.796   0.739
 2425W        W 9734  18.325   1.683   9.302
 2426W        W 9735  16.389   1.673   6.939
 2427W        W 9736   3.667   5.027   7.405
 2428W        W 9737  15.385   6.459   0.266
 2429W        W 9738   5.126   0.283   0.714
 2430W        W 9739  13.427   3.599   9.309
 2431W        W 9740  19.310   3.138   6.905
 2432W        W 9741  18.334   9.771   9.302
 2433W        W 9742  11.005   7.392   9.796
 2434W        W 9743  15.382   5.518   9.805
 2435W        W 9744  15.856   5.512   6.937
 2436W        W 9745   3.686   8.850   7.883
 2437W        W 9746   9.066   7.885   8.344
 2438W        W 9747   4.661   8.355   9.291
 2439W        W 9748   2.687   3.576   8.353
 2440W        W 9749  10.981   5.972   6.458
 2441W        W 9750   4.166   4.561   5.995
 2442W        W 9751   3.215   6.951   7.391
 2443W        W 9752  18.322   4.090   7.862
 2444W        W 9753  11.002   2.631   5.974
 2445W        W 9754   1.233   2.621   9.321
 2446W        W 9755  13.942   5.011   9.763
 2447W        W 9756   8.541   0.723   6.441
 2448W        W 9757  11.989   2.173   8.379
 2449W        W 9758  18.814   8.347   9.783
 2450W        W 9759  17.323   3.617   7.410
 2451W        W 9760  16.873   3.114   7.406
 2452W        W 9761   9.552   8.839   7.887
 2453W        W 9762   2.685   1.712   8.839
 2454W        W 9763   9.541   9.809   8.848
 2455W        W 9764   6.632   0.244   8.836
 2456W        W 9765   8.083   0.735   6.909
 2457W        W 9766  17.825   2.189   9.295
 2458W        W 9767  17.319   1.214   8.837
 2459W        W 9768   0.761   2.159   9.805
 2460W        W 9769  13.921   6.438   5.976
 2461W        W 9770   0.271   7.414   9.781
 2462W        W 9771  16.384   5.006   9.304
 2463W        W 9772  12.484   0.254   7.384
 2464W        W 9773  13.949   0.740   0.757
 2465W        W 9774   1.224   5.970   6.465
 2466W        W 9775  10.033   7.893   7.408
 2467W        W 9776   3.213   2.661   6.462
 2468W        W 9777  16.843   5.485   7.895
 2469W        W 9778  17.851   8.813   9.323
 2470W        W 9779   4.153   2.148   7.395
 2471W        W 9780   6.115   3.599   7.889
 2472W        W 9781   3.671   0.273   6.446
 2473W        W 9782  11.957   2.169   6.455
 2474W        W 9783   1.710   2.623   0.748
 2475W        W 9784  17.332   5.987   5.955
 2476W        W 9785  18.303   1.687   8.840
 2477W        W 9786   6.108   7.422   0.255
 2478W        W 9787  12.467   9.774   7.410
 2479W        W 9788   2.212   8.845   7.424
 2480W        W 9789  11.976   7.903   0.761
 2481W        W 9790   4.666   5.520   0.268
 2482W        W 9791  12.949   1.675   7.417
 2483W        W 9792  12.477   0.728   7.396
 2484W        W 9793  19.756   4.546   8.364
 2485W        W 9794   7.074   0.747   8.822
 2486W        W 9795  10.994   9.314   8.369
 2487W        W 9796   0.251   2.148   8.353
 2488W        W 9797  14.915   2.188   7.884
 2489W        W 9798   5.134   3.138   9.331
 2490W        W 9799  11.967   4.091   0.759
 2491W        W 9800  18.788   0.267   0.717
 2492W        W 9801   5.131   1.684   7.874
 2493W        W 9802  12.482   4.050   0.726
 2494W        W 9803   4.648   9.318   5.959
 2495W        W 9804  14.439   8.376   8.353
 2496W        W 9805  16.357   4.083   7.412
 2497W        W 9806  11.016   9.802   0.263
 2498W        W 9807   8.092   3.142   0.268
 2499W        W 9808  13.912   4.082   8.373
 2500W        W 9809   1.224   2.146   7.897
 2501W        W 9810   0.274   5.977   9.801
 2502W        W 9811  16.354   1.207   7.875
 2503W        W 9812  17.336   3.586   6.924
 2504W        W 9813  14.895   8.812   0.279
 2505W        W 9814   3.685   7.863   9.777
 2506W        W 9815   5.163   9.305   6.942
 2507W        W 9816   5.163   0.723   0.743
 2508W        W 9817  11.981   6.452   7.410
 2509W        W 9818   4.155   0.730   8.380
 2510W        W 9819   8.097   2.168   0.244
 2511W        W 9820  11.511   8.368   8.857
 2512W        W 9821   0.247   0.247   7.408
 2513W        W 9822  17.346   8.824   8.357
 2514W        W 9823  10.494   1.695   7.863
 2515W        W 9824  10.529   0.736   6.922
 2516W        W 9825  13.433   3.129   8.851
 2517W        W 9826   7.607   5.039   6.915
 2518W        W 9827   4.194   3.615   8.810
 2519W        W 9828  16.839   6.930   6.459
 2520W        W 9829   5.157   6.940   7.875
 2521W        W 9830   7.078   5.965   6.935
 2522W        W 9831   4.179   1.199   7.427
 2523W        W 9832  13.426   7.885   6.464
 2524W        W 9833   8.542   4.543   0.737
 2525W        W 9834  18.309   8.834   8.340
 2526W        W 9835  14.891   5.509   6.470
 2527W        W 9836  17.340   7.385   0.749
 2528W        W 9837  12.973   0.734   7.869
 2529W        W 9838  15.899   0.735   7.900
 2530W        W 9839   9.046   5.489   8.819
 2531W        W 9840  17.842   9.328   7.383
 2532W        W 9841   1.231   3.115   8.820
 2533W        W 9842  13.910   3.104   1.204
 2534W        W 9843  19.291   6.448   7.386
 2535W        W 9844  16.378   7.890   7.873
 2536W        W 9845   9.557   6.443   7.891
 2537W        W 9846  18.306   2.660   9.783
 2538W        W 9847   8.561   4.073   9.781
 2539W        W 9848  16.875   7.866   6.923
 2540W        W 9849   0.282   4.057   6.945
 2541W        W 9850  14.879   3.593   5.971
 2542W        W 9851   4.660   7.898   9.312
 2543W        W 9852  15.863   0.242   6.472
 2544W        W 9853   9.031   3.133   5.960
 2545W        W 9854   8.062   4.063   0.251
 2546W        W 9855  15.414   7.386   9.297
 2547W        W 9856  10.029   7.419   7.891
 2548W        W 9857   6.128   1.695   5.970
 2549W        W 9858   9.071   1.215   0.750
 2550W        W 9859   2.699   4.082   7.895
 2551W        W 9860  14.914   8.831   6.949
 2552W        W 9861   1.224   4.559   9.327
 2553W        W 9862  15.370   5.014   6.433
 2554W        W 9863   1.714   5.478   9.766
 2555W        W 9864  19.764   5.033   8.342
 2556W        W 9865  15.865   5.994   8.822
 2557W        W 9866   9.556   9.325   8.343
 2558W        W 9867  13.427   6.470   8.811
 2559W        W 9868   3.201   0.727   9.318
 2560W        W 9869   9.525   5.961   7.409
 2561W        W 9870  15.387   6.446   6.468
 2562W        W 9871   4.149   6.925   6.905
 2563W        W 9872   7.597   6.451   7.412
 2564W        W 9873   6.586   5.502   0.240
 2565W        W 9874  13.907   5.495   8.819
 2566W        W 9875  17.360   5.047   8.339
 2567W        W 9876  16.376   4.078   0.242
 2568W        W 9877   0.266   0.242   9.286
 2569W        W 9878   0.737   1.192   7.405
 2570W        W 9879  12.468   2.620   9.293
 2571W        W 9880  17.833   8.360   0.249
 2572W        W 9881   6.123   9.286   0.723
 2573W        W 9882   2.201   1.704   6.443
 2574W        W 9883  18.304   3.589   7.397
 2575W        W 9884   1.263   1.220   0.284
 2576W        W 9885  13.419   1.202   7.401
 2577W        W 9886   3.214   8.355   0.753
 2578W        W 9887   2.699   8.831   9.806
 2579W        W 9888  17.845   7.428   5.963
 2580W        W 9889   6.119   1.205   0.277
 2581W        W 9890   6.586   9.797   0.730
 2582W        W 9891   4.669   7.392   6.429
 2583W        W 9892   1.743   2.644   9.331
 2584W        W 9893  10.505   7.426   8.342
 2585W        W 9894  15.876   0.738   8.845
 2586W        W 9895   0.761   7.866   8.376
 2587W        W 9896   3.181   8.851   6.908
 2588W        W 9897  10.027   7.402   8.816
 2589W        W 9898  14.882   0.757   6.951
 2590W        W 9899   9.517   6.935   8.375
 2591W        W 9900   3.210   0.743   0.743
 2592W        W 9901  13.432   5.499   9.773
 2593W        W 9902   4.177   6.429   9.797
 2594W        W 9903  13.454   1.704   7.878
 2595W        W 9904  16.375   7.867   1.191
 2596W        W 9905   7.567   9.327   7.401
 2597W        W 9906  19.299   8.349   9.772
 2598W        W 9907  12.488   7.884   8.836
 2599W        W 9908   2.243   5.480   6.429
 2600W        W 9909   5.145   4.074   5.990
 2601W        W 9910   5.144   7.872   6.907
 2602W        W 9911   6.633   0.726   0.272
 2603W        W 9912   9.026   6.444   7.410
 2604W        W 9913   2.230   1.231   7.887
 2605W        W 9914   0.735   8.354   1.229
 2606W        W 9915  14.418   5.501   5.985
 2607W        W 9916  13.922   8.828   0.258
 2608W        W 9917  16.359   2.638   8.371
 2609W        W 9918  15.401   7.384   0.738
 2610W        W 9919  11.959   5.523   9.783
 2611W        W 9920   4.635   5.036   7.890
 2612W        W 9921   3.197   2.630   7.891
 2613W        W 9922  13.430   8.363   8.856
 2614W        W 9923  16.380   2.181   9.767
 2615W        W 9924   4.636   0.276   9.289
 2616W        W 9925  10.039   4.076   0.720
 2617W        W 9926  16.380   0.719   9.327
 2618W        W 9927   1.713   5.493   0.261
 2619W        W 9928  13.436   2.182   0.748
 2620W        W 9929   2.731   4.558   5.990
 2621W        W 9930  17.323   5.036   6.940
 2622W        W 9931   7.086   1.692   7.381
 2623W        W 9932  11.478   6.465   8.348
 2624W        W 9933   6.608   3.117   7.395
 2625W        W 9934  17.321   5.478   7.890
 2626W        W 9935   3.698   2.161   7.889
 2627W        W 9936  19.289   5.978   7.397
 2628W        W 9937  19.767   5.523   0.271
 2629W        W 9938  13.905   9.304   6.440
 2630W        W 9939   7.100   5.957   0.252
 2631W        W 9940   9.063   4.537   5.960
 2632W        W 9941  15.398   2.143   0.280
 2633W        W 9942  15.861   5.032   9.318
 2634W        W 9943  10.004   7.398   7.390
 2635W        W 9944   0.255   5.004   9.765
 2636W        W 9945  13.908   1.232   7.886
 2637W        W 9946  17.813   8.347   0.731
 2638W        W 9947  11.986   9.296   8.851
 2639W        W 9948  12.966   5.976   7.862
 2640W        W 9949   3.689   7.872   0.733
 2641W        W 9950   1.743   7.408   6.942
 2642W        W 9951  15.390   9.781   5.958
 2643W        W 9952   5.624   0.753   8.853
 2644W        W 9953  10.508   0.722   8.810
 2645W        W 9954  10.507   8.365   6.919
 2646W        W 9955  15.413   3.614   8.834
 2647W        W 9956  18.797   3.581   9.316
 2648W        W 9957   2.209   1.683   8.811
 2649W        W 9958  10.509   9.785   6.471
 2650W        W 9959  16.361   8.335   7.880
 2651W        W 9960  13.934   9.313   7.404
 2652W        W 9961   7.601   4.076   6.942
 2653W        W 9962   4.644   0.250   5.954
 2654W        W 9963  11.493   3.613   6.458
 2655W        W 9964   4.162   4.544   8.850
 2656W        W 9965  18.822   0.733   8.843
 2657W        W 9966  18.793   3.604   0.272
 2658W        W 9967  16.343   4.544   0.241
 2659W        W 9968  10.532   4.092   7.414
 2660W        W 9969   1.715   7.868   5.984
 2661W        W 9970   3.699   8.372   6.463
 2662W        W 9971   7.580   8.813   7.878
 2663W        W 9972   3.207   9.787   8.839
 2664W        W 9973   8.583   8.339   9.767
 2665W        W 9974   7.082   7.903   0.729
 2666W        W 9975   4.644   1.678   0.252
 2667W        W 9976   6.146   5.989   8.854
 2668W        W 9977  19.279   6.940   9.323
 2669W        W 9978  16.843   2.649   6.433
 2670W        W 9979   3.176   4.542   7.381
 2671W        W 9980   9.524   4.571   9.764
 2672W        W 9981  10.522   5.045   9.296
 2673W        W 9982  15.868   8.347   0.728
 2674W        W 9983   2.706   9.332   0.754
 2675W        W 9984   3.670   4.562   8.376
 2676W        W 9985  18.797   1.694   8.361
 2677W        W 9986  10.997   8.370   0.251
 2678W        W 9987   6.141   4.567   8.821
 2679W        W 9988  13.940   8.820   9.780
 2680W        W 9989   4.653   4.545   5.968
 2681W        W 9990  19.301   1.199   5.994
 2682W        W 9991  15.368   4.055   7.386
 2683W        W 9992  13.929   2.647   9.305
 2684W        W 9993  19.287   4.553   6.441
 2685W        W 9994   4.659   7.385   9.301
 2686W        W 9995   0.280   1.220   7.399
 2687W        W 9996   5.170   3.095   0.740
 2688W        W 9997   5.630   5.524   7.861
 2689W        W 9998  12.444   9.292   0.736
 2690W        W 9999  11.466   6.447   0.249
 2691W        W10000  14.880   7.897   9.302
 2692W        W10001  12.470   6.933   8.831
 2693W        W10002  11.494   7.862   0.734
 2694W        W10003  11.956   0.257   0.248
 2695W        W10004   1.242   1.689   7.416
 2696W        W10005  11.024   4.526   5.955
 2697W        W10006  12.478   5.492   9.307
 2698W        W10007  13.939   9.768   9.798
 2699W        W10008   0.778   9.331   6.917
 2700W        W10009  14.424   1.206   8.347
 2701W        W10010  17.810   1.223   8.825
 2702W        W10011  18.319   2.649   9.290
 2703W        W10012  13.430   8.361   5.969
 2704W        W10013  14.898   9.320   8.366
 2705W        W10014  13.915   6.935   6.940
 2706W        W10015   4.664   7.889   7.386
 2707W        W10016   2.723   9.794   8.810
 2708W        W10017  17.334   7.878   0.744
 2709W        W10018  15.882   0.262   9.785
 2710W        W10019   2.686   5.959   6.462
 2711W        W10020  15.891   7.897   9.324
 2712W        W10021  13.911   7.901   6.916
 2713W        W10022   5.130   6.448   7.903
 2714W        W10023  18.330   7.404   9.796
 2715W        W10024   9.025   8.815   9.790
 2716W        W10025  10.528   4.069   9.308
 2717W        W10026   8.540   5.967   8.845
 2718W        W10027   4.163   2.155   7.894
 2719W        W10028  12.961   6.462   8.342
 2720W        W10029  18.309   5.003   9.328
 2721W        W10030   5.631   8.812   9.774
 2722W        W10031  13.425   2.626   7.881
 2723W        W10032   0.253   7.391   9.307
 2724W        W10033  17.322   2.159   0.274
 2725W        W10034   2.719   2.666   9.797
 2726W        W10035  18.803   5.042   0.727
 2727W        W10036   4.646   2.663   8.357
 2728W        W10037   5.651   3.095   7.427
 2729W        W10038  16.849   4.529   8.835
 2730W        W10039   2.200   0.718   6.431
 2731W        W10040  10.001   6.449   6.475
 2732W        W10041  12.443   6.452   5.961
 2733W        W10042   4.177   3.134   0.241
 2734W        W10043   3.663   3.585   9.777
 2735W        W10044  14.425   7.903   0.252
 2736W        W10045   4.165   8.841   7.868
 2737W        W10046  19.269   2.628   5.991
 2738W        W10047  10.491   2.189   7.858
 2739W        W10048  12.443   7.391   7.395
 2740W        W10049  17.331   0.270   9.324
 2741W        W10050  10.014   8.352   6.922
 2742W        W10051  14.902   5.020   8.372
 2743W        W10052   3.692   3.609   9.295
 2744W        W10053  12.444   6.936   5.491
 2745W        W10054  19.764   1.213   7.417
 2746W        W10055  14.392   5.963   0.734
 2747W        W10056   8.089   7.883   5.970
 2748W        W10057   1.743   0.267   8.343
 2749W        W10058  16.366   2.658   1.204
 2750W        W10059   2.208   2.187   8.366
 2751W        W10060  19.773   1.695   1.194
 2752W        W10061   4.670   9.322   7.418
 2753W        W10062  11.984   0.262   5.962
 2754W        W10063   8.577   4.088   7.404
 2755W        W10064  18.335   8.361   7.397
 2756W        W10065   6.123   0.244   6.939
 2757W        W10066  14.429   7.405   8.374
 2758W        W10067   2.685   6.476   6.443
 2759W        W10068   2.231   0.266   8.839
 2760W        W10069  11.497   5.999   0.726
 2761W        W10070   0.777   4.061   8.355
 2762W        W10071   8.568   7.858   6.000
 2763W        W10072   0.292   4.079   6.448
 2764W        W10073  13.429   1.691   6.464
 2765W        W10074   1.224   1.712   8.380
 2766W        W10075   3.673   1.698   0.743
 2767W        W10076  16.361   7.895   6.928
 2768W        W10077   7.600   1.711   0.734
 2769W        W10078  11.511   1.699   8.360
 2770W        W10079   4.647   1.210   8.351
 2771W        W10080   2.711   2.655   7.397
 2772W        W10081  10.496   8.844   8.842
 2773W        W10082   1.712   1.676   6.926
 2774W        W10083   3.679   7.880   0.285
 2775W        W10084  17.818   2.658   6.928
 2776W        W10085  17.827   7.428   9.798
 2777W        W10086  13.439   2.666   0.250
 2778W        W10087  14.907   4.547   7.866
 2779W        W10088   0.250   8.815   0.262
 2780W        W10089  11.016   5.966   6.915
 2781W        W10090  14.420   4.093   7.875
 2782W        W10091  10.025   7.872   6.472
 2783W        W10092   9.539   2.655   0.746
 2784W        W10093  14.418   5.019   0.757
 2785W        W10094   7.589   3.613   5.986
 2786W        W10095   5.610   3.125   7.894
 2787W        W10096   1.737   3.587   0.717
 2788W        W10097   0.254   9.297   7.411
 2789W        W10098  19.294   4.078   5.969
 2790W        W10099   0.253   0.246   6.472
 2791W        W10100   2.721   6.926   8.819
 2792W        W10101   5.142   6.947   8.819
 2793W        W10102   5.132   1.203   7.884
 2794W        W10103  17.353   4.051   9.768
 2795W        W10104  19.798   2.169   8.378
 2796W        W10105   5.618   3.585   7.894
 2797W        W10106  17.836   7.418   0.263
 2798W        W10107  18.334   7.884   8.345
 2799W        W10108   6.631   5.007   6.473
 2800W        W10109  18.804   2.622   7.394
 2801W        W10110   4.642   2.174   0.258
 2802W        W10111  13.914   5.513   0.279
 2803W        W10112  13.418   1.712   9.317
 2804W        W10113   7.082   8.377   8.357
 2805W        W10114   5.653   3.613   0.731
 2806W        W10115  12.447   7.865   0.268
 2807W        W10116  11.490   5.514   5.958
 2808W        W10117  15.399   0.755   5.953
 2809W        W10118   0.742   3.575   8.349
 2810W        W10119   8.572   7.895   1.671
 2811W        W10120  11.980   0.240   7.877
 2812W        W10121  12.946   5.029   7.416
 2813W        W10122   1.254   0.262   0.255
 2814W        W10123  19.300   5.488   6.447
 2815W        W10124   4.658   7.888   0.723
 2816W        W10125  10.529   8.847   0.726
 2817W        W10126  15.405   5.478   6.470
 2818W        W10127  16.358   0.239   8.851
 2819W        W10128  15.894   1.687   9.318
 2820W        W10129  10.976   7.878   7.892
 2821W        W10130  12.951   2.174   6.913
 2822W        W10131  15.394   3.142   5.987
 2823W        W10132  13.946   4.553   7.895
 2824W        W10133   4.178   3.099   7.383
 2825W        W10134   8.580   7.412   6.454
 2826W        W10135   8.090   7.405   9.307
 2827W        W10136   8.576   3.133   1.195
 2828W        W10137   8.091   1.694   6.926
 2829W        W10138  10.501   5.995   6.935
 2830W        W10139  11.016   2.621   9.300
 2831W        W10140   0.258   2.660   7.882
 2832W        W10141   2.698   5.496   8.378
 2833W        W10142   4.186   5.954   7.900
 2834W        W10143  19.307   5.021   0.732
 2835W        W10144  15.892   2.626   8.360
 2836W        W10145   4.159   5.016   7.894
 2837W        W10146  19.788   8.832   9.799
 2838W        W10147   0.756   4.093   6.939
 2839W        W10148   8.553   2.189   9.784
 2840W        W10149   7.078   8.378   9.325
 2841W        W10150  17.356   0.282   8.377
 2842W        W10151   9.062   3.104   0.740
 2843W        W10152  10.022   2.627   0.746
 2844W        W10153  16.373   7.904   0.246
 2845W        W10154   0.762   9.305   7.880
 2846W        W10155   3.180   0.271   7.405
 2847W        W10156  13.921   7.421   6.917
 2848W        W10157  15.901   1.694   8.826
 2849W        W10158  19.315   2.631   6.947
 2850W        W10159   1.715   7.891   0.278
 2851W        W10160  18.333   6.929   7.888
 2852W        W10161  10.015   9.776   7.893
 2853W        W10162   3.681   2.636   8.371
 2854W        W10163  13.948   2.169   1.203
 2855W        W10164   5.144   0.272   9.294
 2856W        W10165   8.543   0.247   6.462
 2857W        W10166  16.390   3.098   9.305
 2858W        W10167   1.715   6.939   0.760
 2859W        W10168   9.521   7.382   9.798
 2860W        W10169   5.145   5.497   7.898
 2861W        W10170   7.607   8.822   5.977
 2862W        W10171   6.603   0.715   7.885
 2863W        W10172  11.011   6.931   1.202
 2864W        W10173   0.247   2.165   0.249
 2865W        W10174  10.509   6.436   8.816
 2866W        W10175  15.870   6.446   7.889
 2867W        W10176   5.138   5.516   8.846
 2868W        W10177   5.157   7.410   6.452
 2869W        W10178  18.320   4.056   6.457
 2870W        W10179  14.434   6.945   9.796
 2871W        W10180   7.106   3.612   0.722
 2872W        W10181   1.709   9.796   9.329
 2873W        W10182   0.275   9.801   7.882
 2874W        W10183   3.666   2.655   6.433
 2875W        W10184   0.292   1.708   7.409
 2876W        W10185  18.310   4.091   0.274
 2877W        W10186   0.283   2.164   9.795
 2878W        W10187   1.224   0.248   7.858
 2879W        W10188   5.621   8.379   8.338
 2880W        W10189  10.978   3.130   0.281
 2881W        W10190  14.404   5.002   6.926
 2882W        W10191   6.127   7.895   8.830
 2883W        W10192   4.639   8.821   0.243
 2884W        W10193   7.079   2.165   7.858
 2885W        W10194   9.528   1.221   0.739
 2886W        W10195   0.264   6.468   7.874
 2887W        W10196  18.799   7.385   8.335
 2888W        W10197  18.818   6.940   6.911
 2889W        W10198  15.397   9.312   9.323
 2890W        W10199  10.502   8.836   9.768
 2891W        W10200  14.924   2.633   9.308
 2892W        W10201  14.923   4.567   6.459
 2893W        W10202  19.275   7.412   6.433
 2894W        W10203  13.924   4.069   9.771
 2895W        W10204   7.087   0.243   6.436
 2896W        W10205   3.197   0.246   7.874
 2897W        W10206   8.091   9.767   7.426
 2898W        W10207  14.901   0.760   5.978
 2899W        W10208   0.753   9.296   5.972
 2900W        W10209   5.653   2.163   9.321
 2901W        W10210   2.690   2.653   7.884
 2902W        W10211  12.975   4.080   9.799
 2903W        W10212   2.228   4.067   0.254
 2904W        W10213  13.455   8.363   7.413
 2905W        W10214   7.604   7.401   6.474
 2906W        W10215   4.195   1.701   0.271
 2907W        W10216   2.230   6.468   6.946
 2908W        W10217  11.954   1.686   0.267
 2909W        W10218   6.626   4.089   8.344
 2910W        W10219   1.249   9.327   8.345
 2911W        W10220   8.578   6.429   6.471
 2912W        W10221  13.454   0.256   7.871
 2913W        W10222   2.708   5.988   9.765
 2914W        W10223  18.792   4.072   6.939
 2915W        W10224   1.738   2.158   9.792
 2916W        W10225   5.621   2.620   7.905
 2917W        W10226  12.468   7.384   0.749
 2918W        W10227   1.746   6.925   8.362
 2919W        W10228   7.590   6.429   0.267
 2920W        W10229   5.620   1.223   8.818
 2921W        W10230  16.369   2.620   0.240
 2922W        W10231  18.804   4.073   9.783
 2923W        W10232  12.927   9.797   7.899
 2924W        W10233  11.976   9.806   7.865
 2925W        W10234  16.835   6.946   8.346
 2926W        W10235  14.917   4.525   7.381
 2927W        W10236  18.295   2.168   0.746
 2928W        W10237   1.227   7.879   7.386
 2929W        W10238  10.030   5.017   5.955
 2930W        W10239   7.568   3.135   1.211
 2931W        W10240   4.193   3.598   0.762
 2932W        W10241   8.541   2.661   8.813
 2933W        W10242   2.711   5.955   7.899
 2934W        W10243   8.543   5.015   7.417
 2935W        W10244   0.779   8.361   9.794
 2936W        W10245  13.920   3.593   6.456
 2937W        W10246   0.255   6.463   0.734
 2938W        W10247  10.504   6.944   0.718
 2939W        W10248  19.765   7.864   6.471
 2940W        W10249   8.069   2.159   6.931
 2941W        W10250   9.038   1.201   6.433
 2942W        W10251  13.423   9.804   0.751
 2943W        W10252  13.930   1.713   7.426
 2944W        W10253  11.968   8.358   9.792
 2945W        W10254   7.583   6.429   8.368
 2946W        W10255   6.621   5.493   7.896
 2947W        W10256  18.811   8.349   5.967
 2948W        W10257  17.335   8.377   0.740
 2949W        W10258   9.065   2.169   9.786
 2950W        W10259  18.302   2.661   6.937
 2951W        W10260  11.970   9.316   9.327
 2952W        W10261  16.376   6.920   9.305
 2953W        W10262   1.715   6.463   7.896
 2954W        W10263   8.574   5.507   1.238
 2955W        W10264   5.625   7.903   6.952
 2956W        W10265  11.990   9.333   7.864
 2957W        W10266   8.568   0.751   0.719
 2958W        W10267  13.445   2.648   9.309
 2959W        W10268   4.642   5.025   9.795
 2960W        W10269   7.107   8.820   9.306
 2961W        W10270  14.396   9.308   8.838
 2962W        W10271  16.384   7.412   7.412
 2963W        W10272  17.318   1.207   9.300
 2964W        W10273  15.376   1.714   6.935
 2965W        W10274   3.199   7.397   0.724
 2966W        W10275   2.730   3.589   9.294
 2967W        W10276  13.914   4.060   7.417
 2968W        W10277  15.869   3.126   7.415
 2969W        W10278   9.548   1.671   6.439
 2970W        W10279  13.443   5.006   0.732
 2971W        W10280  18.789   6.949   7.414
 2972W        W10281   0.276   2.154   6.464
 2973W        W10282  15.882   5.493   9.300
 2974W        W10283   8.053   3.129   7.872
 2975W        W10284   0.745   0.254   7.860
 2976W        W10285   6.619   6.940   8.857
 2977W        W10286   0.737   1.203   9.290
 2978W        W10287  19.801   6.451   8.364
 2979W        W10288  16.867   1.203   7.866
 2980W        W10289  12.941   2.640   7.901
 2981W        W10290  17.327   5.029   9.783
 2982W        W10291  14.427   9.297   8.380
 2983W        W10292   1.246   3.581   9.315
 2984W        W10293  15.393   2.624   7.386
 2985W        W10294  10.035   9.319   6.925
 2986W        W10295   0.767   2.636   7.395
 2987W        W10296  17.835   8.339   6.914
 2988W        W10297   5.170   9.797   6.910
 2989W        W10298  14.428   4.093   6.449
 2990W        W10299  14.879   9.332   8.818
 2991W        W10300  16.836   9.318   7.413
 2992W        W10301  14.905   1.220   0.727
 2993W        W10302  12.948   2.162   7.858
 2994W        W10303   3.689   5.504   7.889
 2995W        W10304  14.428   4.561   0.268
 2996W        W10305  12.954   1.674   9.771
 2997W        W10306   0.256   6.950   6.913
 2998W        W10307  11.968   8.852   9.788
 2999W        W10308  11.007   2.153   7.876
 3000W        W10309   9.524   8.813   8.376
 3001W        W10310  15.389   9.320   6.924
 3002W        W10311   4.164   6.914   9.292
 3003W        W10312   9.072   8.363   7.405
 3004W        W10313  15.379   0.270   5.967
 3005W        W10314   3.188   5.522   9.299
 3006W        W10315  18.808   8.828   6.914
 3007W        W10316  14.406   8.841   8.822
 3008W        W10317   4.159   2.642   9.328
 3009W        W10318   9.037   5.981   8.376
 3010W        W10319   9.513   5.022   8.847
 3011W        W10320   1.223   9.328   7.415
 3012W        W10321  10.988   7.892   0.720
 3013W        W10322   0.758   3.136   0.242
 3014W        W10323   7.090   8.363   6.939
 3015W        W10324   4.666   5.499   6.907
 3016W        W10325  10.033   0.256   7.879
 3017W        W10326   5.158   8.850   6.921
 3018W        W10327  19.763   8.830   9.329
 3019W        W10328   2.199   8.830   5.956
 3020W        W10329  12.443   4.059   6.938
 3021W        W10330   7.095   7.873   6.906
 3022W        W10331   2.717   2.146   6.460
 3023W        W10332   6.136   1.710   0.272
 3024W        W10333  16.389   6.442   7.387
 3025W        W10334  11.005   3.135   1.209
 3026W        W10335   6.102   6.947   8.363
 3027W        W10336   0.776   2.659   6.472
 3028W        W10337   8.088   4.093   9.772
 3029W        W10338  11.985   2.628   8.846
 3030W        W10339  16.363   2.629   6.475
 3031W        W10340   3.214   3.112   7.404
 3032W        W10341  13.927   1.672   6.946
 3033W        W10342  16.351   4.056   6.914
 3034W        W10343   3.701   5.018   8.375
 3035W        W10344   2.215   8.855   8.848
 3036W        W10345   2.208   8.339   0.715
 3037W        W10346  14.430   7.858   9.298
 3038W        W10347  11.480   3.101   6.474
 3039W        W10348   9.033   2.628   7.399
 3040W        W10349   0.780   2.650   0.244
 3041W        W10350  13.415   0.285   8.825
 3042W        W10351   8.542   0.752   8.364
 3043W        W10352   4.640   7.886   8.843
 3044W        W10353  11.474   5.991   8.846
 3045W        W10354   2.201   0.739   6.939
 3046W        W10355   7.099   3.104   0.753
 3047W        W10356   5.626   4.065   9.290
 3048W        W10357  14.905   6.461   7.428
 3049W        W10358  12.930   7.398   7.392
 3050W        W10359  14.922   0.740   8.830
 3051W        W10360   1.262   0.741   0.256
 3052W        W10361  16.366   2.146   6.908
 3053W        W10362  18.339   4.538   6.952
 3054W        W10363  14.402   8.358   7.861
 3055W        W10364  11.958   1.683   7.897
 3056W        W10365   5.653   5.487   0.274
 3057W        W10366   1.225   6.441   8.364
 3058W        W10367  14.405   7.867   8.381
 3059W        W10368  16.844   1.697   0.742
 3060W        W10369  17.839   6.933   7.422
 3061W        W10370  13.944   4.087   0.245
 3062W        W10371   9.050   5.029   6.462
 3063W        W10372   7.087   6.438   9.315
 3064W        W10373  15.866   1.232   0.245
 3065W        W10374  10.041   6.926   5.997
 3066W        W10375   3.659   5.508   0.271
 3067W        W10376  13.928   1.213   0.250
 3068W        W10377  18.807   5.512   8.344
 3069W        W10378   7.606   8.376   8.821
 3070W        W10379  17.356   0.271   0.726
 3071W        W10380  15.412   1.207   9.306
 3072W        W10381  17.335   4.551   0.278
 3073W        W10382   0.733   0.733   6.925
 3074W        W10383  13.914   9.312   8.374
 3075W        W10384   3.193   0.259   9.297
 3076W        W10385   3.191   3.580   8.363
 3077W        W10386  16.379   3.610   8.823
 3078W        W10387  13.931   2.642   6.945
 3079W        W10388   2.242   7.902   0.717
 3080W        W10389   5.617   8.836   7.883
 3081W        W10390   3.181   7.386   9.769
 3082W        W10391   7.580   2.156   8.848
 3083W        W10392   1.708   7.901   6.912
 3084W        W10393   9.552   4.082   6.944
 3085W        W10394  19.762   8.836   8.853
 3086W        W10395   7.591   1.712   9.331
 3087W        W10396  10.014   8.850   0.762
 3088W        W10397  15.372   4.544   9.311
 3089W        W10398   7.574   5.495   7.424
 3090W        W10399   8.563   6.458   5.504
 3091W        W10400   3.678   2.187   9.320
 3092W        W10401  13.943   7.397   7.387
 3093W        W10402  12.960   8.829   8.380
 3094W        W10403  13.905   5.490   6.468
 3095W        W10404   5.170   1.234   7.383
 3096W        W10405  10.523   7.398   6.443
 3097W        W10406   0.251   3.126   9.798
 3098W        W10407   6.626   9.309   7.396
 3099W        W10408  16.872   9.321   0.748
 3100W        W10409  16.845   3.142   0.246
 3101W        W10410   7.073   1.237   0.759
 3102W        W10411   6.590   6.449   6.907
 3103W        W10412  12.929   2.642   9.314
 3104W        W10413   0.745   1.705   6.469
 3105W        W10414   3.665   0.717   7.383
 3106W        W10415  14.885   3.101   8.820
 3107W        W10416  10.517   4.092   7.870
 3108W        W10417   7.118   4.545   5.978
 3109W        W10418  16.379   9.294   7.885
 3110W        W10419   6.587   6.476   9.796
 3111W        W10420   8.085   1.224   8.836
 3112W        W10421  13.902   0.256   7.410
 3113W        W10422  11.475   7.896   6.444
 3114W        W10423  15.376   1.693   9.311
 3115W        W10424  11.511   1.210   6.945
 3116W        W10425  19.765   6.910   7.896
 3117W        W10426   3.175   0.262   8.838
 3118W        W10427   5.135   1.711   8.815
 3119W        W10428   2.215   6.934   8.837
 3120W        W10429  14.407   3.604   6.438
 3121W        W10430   9.035   1.686   9.802
 3122W        W10431  13.923   1.680   5.489
 3123W        W10432   6.130   5.515   9.781
 3124W        W10433   1.250   9.785   0.741
 3125W        W10434   7.111   2.145   0.744
 3126W        W10435  10.515   7.867   9.310
 3127W        W10436  18.317   8.854   8.832
 3128W        W10437  14.902   0.259   8.342
 3129W        W10438   6.117   2.631   0.759
 3130W        W10439  17.331   5.492   7.405
 3131W        W10440   9.556   7.409   5.996
 3132W        W10441  16.361   6.456   6.462
 3133W        W10442  15.859   5.034   8.336
 3134W        W10443  11.977   9.793   0.269
 3135W        W10444  10.489   5.985   9.765
 3136W        W10445   7.566   6.448   9.781
 3137W        W10446   0.770   5.029   5.975
 3138W        W10447   8.542   2.166   6.938
 3139W        W10448   7.114   5.498   7.400
 3140W        W10449   0.759   1.678   0.276
 3141W        W10450   9.028   5.979   5.501
 3142W        W10451   7.119   9.804   6.927
 3143W        W10452  18.787   3.118   7.408
 3144W        W10453   9.557   0.758   7.895
 3145W        W10454   5.151   9.331   7.420
 3146W        W10455  19.283   1.682   0.272
 3147W        W10456  18.824   3.576   6.925
 3148W        W10457   8.548   4.551   0.265
 3149W        W10458  18.327   7.898   7.894
 3150W        W10459   2.684   5.039   7.394
 3151W        W10460   3.668   3.096   7.866
 3152W        W10461   9.518   2.145   9.305
 3153W        W10462   4.162   6.443   7.892
 3154W        W10463   7.594   5.483   6.939
 3155W        W10464   6.137   9.771   6.445
 3156W        W10465   5.129   2.632   9.785
 3157W        W10466   6.113   9.307   9.809
 3158W        W10467   0.288   2.647   6.946
 3159W        W10468   9.528   0.752   8.818
 3160W        W10469   2.199   9.770   7.392
 3161W        W10470  16.377   0.727   5.974
 3162W        W10471   2.229   2.146   8.852
 3163W        W10472   1.756   2.171   6.471
 3164W        W10473   5.158   3.115   0.259
 3165W        W10474   8.562   4.071   9.305
 3166W        W10475   4.676   3.128   7.870
 3167W        W10476  14.400   5.515   6.946
 3168W        W10477   7.565   9.301   0.280
 3169W        W10478   9.073   2.647   6.914
 3170W        W10479  14.879   7.888   7.384
 3171W        W10480  13.914   0.257   8.811
 3172W        W10481   4.671   1.689   7.413
 3173W        W10482   9.069   4.088   8.850
 3174W        W10483   6.101   1.700   6.930
 3175W        W10484   1.755   6.948   5.969
 3176W        W10485   0.261   7.873   6.952
 3177W        W10486   2.235   9.290   8.831
 3178W        W10487  18.325   7.426   7.386
 3179W        W10488  18.817   6.455   0.745
 3180W        W10489   6.106   1.670   8.816
 3181W        W10490   2.690   0.251   5.999
 3182W        W10491  10.522   3.605   6.947
 3183W        W10492  17.328   5.973   9.320
 3184W        W10493   1.752   0.241   8.845
 3185W        W10494  15.891   0.272   0.274
 3186W        W10495   8.542   2.157   1.228
 3187W        W10496  15.858   9.315   6.947
 3188W        W10497  11.498   3.139   9.327
 3189W        W10498  10.001   8.826   8.348
 3190W        W10499  16.355   6.475   0.739
 3191W        W10500   2.212   3.104   8.857
 3192W        W10501  18.809   1.682   0.735
 3193W        W10502  17.345   7.403   6.442
 3194W        W10503   5.625   0.269   8.822
 3195W        W10504  18.314   0.717   8.828
 3196W        W10505  16.861   5.953   6.921
 3197W        W10506   2.725   2.663   6.474
 3198W        W10507  10.996   3.107   7.387
 3199W        W10508  15.872   7.415   6.932
 3200W        W10509  12.457   8.354   7.894
 3201W        W10510   3.174   4.542   7.872
 3202W        W10511  14.889   9.789   9.287
 3203W        W10512  15.397   1.699   0.240
 3204W        W10513   0.291   9.328   8.832
 3205W        W10514   4.179   4.543   7.413
 3206W        W10515   7.571   2.167   0.746
 3207W        W10516  11.984   8.829   0.752
 3208W        W10517  14.879   1.218   8.821
 3209W        W10518  17.842   3.604   7.397
 3210W        W10519   6.615   0.247   7.898
 3211W        W10520  13.444   7.388   9.777
 3212W        W10521   9.519   5.984   7.873
 3213W        W10522  10.993   6.943   7.404
 3214W        W10523  10.532   0.265   5.999
 3215W        W10524   6.590   2.660   7.889
 3216W        W10525  17.341   0.739   7.390
 3217W        W10526   3.669   7.899   6.934
 3218W        W10527  11.990   7.898   0.250
 3219W        W10528  18.805   7.891   9.307
 3220W        W10529   2.709   4.053   0.717
 3221W        W10530   9.518   4.084   0.755
 3222W        W10531  18.826   0.757   6.952
 3223W        W10532  10.003   1.692   7.896
 3224W        W10533   2.701   6.457   0.734
 3225W        W10534   6.612   0.252   6.467
 3226W        W10535  17.847   4.568   6.458
 3227W        W10536  15.861   1.687   0.741
 3228W        W10537  11.488   0.735   8.360
 3229W        W10538   7.589   6.456   0.730
 3230W        W10539   1.709   5.954   8.824
 3231W        W10540  10.020   5.035   9.779
 3232W        W10541  16.368   7.878   5.974
 3233W        W10542  12.969   0.745   0.255
 3234W        W10543   6.140   6.446   9.794
 3235W        W10544   1.730   9.286   5.984
 3236W        W10545  12.933   0.253   7.899
 3237W        W10546   6.125   5.020   7.381
 3238W        W10547  12.453   8.819   8.350
 3239W        W10548   5.142   4.528   0.245
 3240W        W10549   2.223   7.882   8.370
 3241W        W10550   6.614   1.210   8.379
 3242W        W10551  11.000   0.720   9.302
 3243W        W10552  12.457   6.941   8.346
 3244W        W10553   6.625   3.096   9.787
 3245W        W10554  10.511   7.416   9.317
 3246W        W10555  17.834   9.782   6.937
 3247W        W10556  16.847   4.048   6.940
 3248W        W10557  13.455   5.007   6.917
 3249W        W10558   4.148   9.298   8.372
 3250W        W10559   6.120   6.907   0.727
 3251W        W10560   2.719   4.554   0.721
 3252W        W10561  17.853   6.437   8.834
 3253W        W10562   2.713   5.964   8.343
 3254W        W10563  17.817   9.783   6.444
 3255W        W10564   1.258   3.131   0.278
 3256W        W10565   1.739   2.180   8.845
 3257W        W10566   8.056   0.758   7.880
 3258W        W10567   3.672   4.069   9.796
 3259W        W10568   0.265   2.627   8.849
 3260W        W10569   9.066   8.376   0.273
 3261W        W10570   0.774   9.768   6.919
 3262W        W10571  18.818   2.164   6.441
 3263W        W10572  12.933   0.746   0.726
 3264W        W10573   5.654   5.031   9.779
 3265W        W10574  19.759   1.703   9.329
 3266W        W10575  14.393   4.531   9.807
 3267W        W10576   2.688   4.077   9.768
 3268W        W10577  13.432   0.744   0.759
 3269W        W10578   6.143   9.762   8.341
 3270W        W10579   7.106   6.929   6.459
 3271W        W10580   1.709   7.889   8.814
 3272W        W10581   8.093   0.747   0.722
 3273W        W10582  11.511   2.658   7.381
 3274W        W10583   9.547   8.367   0.724
 3275W        W10584  18.783   6.434   0.265
 3276W        W10585  10.011   6.431   5.977
 3277W        W10586   7.080   5.986   8.825
 3278W        W10587  15.400   7.871   0.724
 3279W        W10588   5.614   6.939   6.429
 3280W        W10589  17.807   4.080   8.340
 3281W        W10590   3.691   2.145   0.761
 3282W        W10591   1.228   7.401   9.332
 3283W        W10592   8.076   0.725   9.304
 3284W        W10593   6.628   0.733   9.287
 3285W        W10594  17.806   2.666   9.316
 3286W        W10595  11.988   3.599   9.319
 3287W        W10596  19.310   8.334   5.967
 3288W        W10597  14.437   9.298   9.332
 3289W        W10598  10.035   8.377   6.474
 3290W        W10599   2.200   9.324   6.913
 3291W        W10600  15.876   3.585   9.313
 3292W        W10601  15.878   9.802   6.906
 3293W        W10602   4.152   7.904   7.894
 3294W        W10603  10.529   4.534   9.787
 3295W        W10604  11.487   2.164   7.410
 3296W        W10605   5.634   0.255   6.935
 3297W        W10606   9.068   1.223   8.344
 3298W        W10607   2.235   9.294   7.394
 3299W        W10608   0.746   4.553   7.402
 3300W        W10609   0.757   5.979   6.932
 3301W        W10610  15.385   5.498   5.994
 3302W        W10611   3.194   8.358   9.316
 3303W        W10612   9.027   5.009   8.371
 3304W        W10613   5.651   4.050   7.866
 3305W        W10614   0.739   7.412   9.298
 3306W        W10615   3.678   9.793   6.445
 3307W        W10616   4.184   3.617   6.946
 3308W        W10617   3.684   6.429   0.726
 3309W        W10618  11.954   6.467   6.906
 3310W        W10619  15.369   5.037   6.946
 3311W        W10620   2.729   2.634   8.835
 3312W        W10621  18.297   6.459   9.790
 3313W        W10622  12.945   1.695   0.281
 3314W        W10623   1.741   9.290   6.453
 3315W        W10624   6.633   4.049   9.330
 3316W        W10625   7.608   0.723   9.291
 3317W        W10626   6.608   5.506   9.292
 3318W        W10627  17.354   9.298   9.298
 3319W        W10628   4.660   5.010   0.746
 3320W        W10629   3.706   3.129   0.239
 3321W        W10630  17.349   2.623   9.292
 3322W        W10631  11.984   7.878   6.450
 3323W        W10632  11.980   3.112   1.225
 3324W        W10633  16.850   9.324   8.810
 3325W        W10634   8.085   1.207   7.417
 3326W        W10635  15.389   1.714   9.807
 3327W        W10636   3.686   0.281   0.761
 3328W        W10637   7.106   6.951   9.798
 3329W        W10638  19.287   4.531   0.735
 3330W        W10639  17.346   5.514   9.788
 3331W        W10640  17.320   5.990   9.784
 3332W        W10641  18.319   3.112   7.902
 3333W        W10642  10.493   1.215   6.914
 3334W        W10643   6.119   7.410   6.470
 3335W        W10644   6.618   6.913   6.925
 3336W        W10645   1.266   5.513   8.822
 3337W        W10646  19.304   1.191   8.823
 3338W        W10647   7.084   6.430   6.911
 3339W        W10648  10.518   6.432   6.945
 3340W        W10649  16.385   0.242   7.391
 3341W        W10650  11.979   7.889   6.943
 3342W        W10651   8.537   6.944   7.397
 3343W        W10652   0.762   9.780   9.294
 3344W        W10653   2.207   7.408   8.355
 3345W        W10654   5.641   6.916   6.947
 3346W        W10655   7.602   3.128   5.983
 3347W        W10656   8.579   2.181   8.843
 3348W        W10657   1.719   7.418   8.339
 3349W        W10658  18.826   2.152   8.819
 3350W        W10659  10.018   4.055   0.245
 3351W        W10660  11.483   7.426   8.853
 3352W        W10661   8.051   5.992   8.828
 3353W        W10662   1.719   7.411   9.289
 3354W        W10663  19.274   0.255   6.952
 3355W        W10664   9.031   4.053   7.904
 3356W        W10665  11.960   1.231   9.790
 3357W        W10666   3.697   9.306   6.442
 3358W        W10667  11.491   0.261   0.743
 3359W        W10668  19.295   1.709   6.445
 3360W        W10669   6.101   9.305   7.900
 3361W        W10670   0.740   4.049   7.895
 3362W        W10671   6.590   8.354   0.745
 3363W        W10672  13.945   1.707   8.351
 3364W        W10673   7.563   8.338   9.290
 3365W        W10674   9.042   6.937   6.911
 3366W        W10675  11.024   9.791   8.847
 3367W        W10676  17.356   8.344   5.992
 3368W        W10677   9.048   2.167   9.323
 3369W        W10678  17.824   3.120   9.296
 3370W        W10679  14.415   1.224   8.821
 3371W        W10680  17.821   2.145   8.826
 3372W        W10681  11.507   1.698   5.973
 3373W        W10682   3.200   2.634   0.239
 3374W        W10683  14.423   0.745   7.388
 3375W        W10684   2.236   1.209   8.365
 3376W        W10685  19.298   4.533   8.842
 3377W        W10686  15.892   3.601   6.443
 3378W        W10687  17.805   9.313   7.895
 3379W        W10688  17.850   6.907   6.441
 3380W        W10689  17.361   4.079   7.411
 3381W        W10690  14.414   3.098   0.238
 3382W        W10691  11.015   4.071   0.752
 3383W        W10692   4.190   1.702   9.782
 3384W        W10693  10.984   5.042   6.475
 3385W        W10694   7.603   5.959   7.882
 3386W        W10695   1.267   8.826   7.386
 3387W        W10696   6.105   4.554   7.878
 3388W        W10697  13.915   1.236   9.325
 3389W        W10698   8.088   7.874   0.745
 3390W        W10699   8.538   8.348   9.291
 3391W        W10700  16.369   7.879   9.323
 3392W        W10701   7.585   5.034   9.314
 3393W        W10702   7.103   2.166   5.965
 3394W        W10703   4.671   4.569   8.822
 3395W        W10704  17.333   5.504   8.852
 3396W        W10705   9.063   0.742   0.714
 3397W        W10706  18.339   6.468   8.356
 3398W        W10707   3.208   2.177   0.756
 3399W        W10708   2.718   4.087   0.279
 3400W        W10709  18.297   8.853   6.452
 3401W        W10710   0.251   3.603   7.400
 3402W        W10711   2.706   0.242   7.859
 3403W        W10712   9.524   2.162   0.760
 3404W        W10713  15.374   7.405   7.868
 3405W        W10714  18.334   3.121   8.346
 3406W        W10715   0.260   2.176   7.412
 3407W        W10716   6.102   5.982   7.867
 3408W        W10717  12.946   9.318   8.341
 3409W        W10718   4.654   5.003   5.970
 3410W        W10719  17.339   9.777   9.806
 3411W        W10720   3.670   5.962   9.290
 3412W        W10721  10.994   7.882   5.978
 3413W        W10722  16.835   0.255   8.817
 3414W        W10723   0.246   4.538   8.833
 3415W        W10724   6.114   7.896   8.371
 3416W        W10725  13.922   4.082   6.914
 3417W        W10726  18.309   8.825   9.316
 3418W        W10727   6.143   2.620   8.810
 3419W        W10728  15.379   1.212   6.432
 3420W        W10729  13.450   7.863   7.420
 3421W        W10730  18.796   0.247   7.872
 3422W        W10731  10.032   8.378   7.401
 3423W        W10732   6.604   4.565   6.445
 3424W        W10733   5.142   9.796   0.271
 3425W        W10734   7.592   3.122   0.252
 3426W        W10735  14.883   9.286   9.332
 3427W        W10736  18.328   8.336   0.253
 3428W        W10737   1.724   7.428   6.467
 3429W        W10738  12.931   2.161   9.315
 3430W        W10739   1.723   3.572   6.930
 3431W        W10740   0.768   5.974   8.349
 3432W        W10741  12.469   5.043   6.453
 3433W        W10742  10.533   5.046   9.802
 3434W        W10743   8.549   1.206   0.282
 3435W        W10744   8.090   1.686   9.318
 3436W        W10745   7.084   5.959   7.422
 3437W        W10746   4.637   1.197   9.803
 3438W        W10747   1.233   7.422   7.886
 3439W        W10748  10.489   9.794   7.396
 3440W        W10749   3.667   9.303   0.258
 3441W        W10750  11.982   9.764   9.289
 3442W        W10751  12.441   4.059   9.806
 3443W        W10752   6.633   8.811   0.240
 3444W        W10753  13.434   0.738   7.391
 3445W        W10754  10.979   9.792   7.385
 3446W        W10755  11.996   1.708   9.292
 3447W        W10756   1.742   7.900   9.778
 3448W        W10757  19.269   1.670   5.972
 3449W        W10758  10.513   0.274   9.778
 3450W        W10759   2.707   0.761   0.726
 3451W        W10760  17.355   0.730   0.259
 3452W        W10761   5.160   5.019   8.856
 3453W        W10762   4.682   9.294   8.838
 3454W        W10763  10.996   3.608   0.283
 3455W        W10764   4.635   1.203   6.935
 3456W        W10765  11.968   4.562   7.394
 3457W        W10766  13.910   4.556   8.353
 3458W        W10767   4.154   6.950   8.846
 3459W        W10768   9.555   5.041   6.444
 3460W        W10769  14.924   0.262   9.799
 3461W        W10770  17.852   0.716   7.410
 3462W        W10771   2.694   9.296   7.387
 3463W        W10772  13.421   0.278   0.252
 3464W        W10773  15.372   5.516   0.733
 3465W        W10774   6.618   6.925   0.278
 3466W        W10775   6.634   1.679   8.349
 3467W        W10776   5.151   3.119   6.472
 3468W        W10777  12.945   6.907   9.326
 3469W        W10778   0.287   8.847   8.363
 3470W        W10779  18.803   2.160   7.902
 3471W        W10780  19.761   0.275   9.333
 3472W        W10781  19.277   2.633   7.416
 3473W        W10782  19.792   4.050   8.347
 3474W        W10783   8.072   2.168   0.729
 3475W        W10784  18.327   4.551   8.840
 3476W        W10785  12.957   8.336   7.888
 3477W        W10786   3.695   3.595   7.876
 3478W        W10787  15.372   4.084   7.860
 3479W        W10788  17.353   7.418   8.377
 3480W        W10789  16.371   3.607   9.292
 3481W        W10790   8.049   9.298   6.925
 3482W        W10791   2.222   5.961   0.269
 3483W        W10792  11.965   5.974   9.789
 3484W        W10793  11.973   4.071   8.852
 3485W        W10794  14.882   7.876   8.339
 3486W        W10795  12.928   3.102   7.881
 3487W        W10796   1.714   4.053   0.724
 3488W        W10797  18.817   4.570   8.841
 3489W        W10798  17.323   1.210   0.735
 3490W        W10799   9.051   7.860   9.313
 3491W        W10800   3.675   2.626   9.796
 3492W        W10801   5.160   0.241   6.916
 3493W        W10802   9.072   6.446   6.949
 3494W        W10803   8.084   5.041   6.439
 3495W        W10804  19.292   4.557   9.330
 3496W        W10805  15.382   4.549   9.791
 3497W        W10806  12.465   2.185   6.451
 3498W        W10807   5.618   0.275   6.442
 3499W        W10808   5.653   7.393   9.292
 3500W        W10809  18.795   0.261   8.849
 3501W        W10810  18.330   8.354   9.328
 3502W        W10811   6.109   7.865   7.416
 3503W        W10812   0.765   5.992   0.729
 3504W        W10813  18.304   9.294   7.895
 3505W        W10814   7.600   1.680   7.882
 3506W        W10815   8.550   5.980   6.951
 3507W        W10816  13.453   1.686   6.947
 3508W        W10817  10.987   1.216   8.378
 3509W        W10818   3.210   3.125   0.726
 3510W        W10819   7.103   0.283   8.350
 3511W        W10820  15.891   6.440   0.735
 3512W        W10821   8.567   5.029   0.756
 3513W        W10822   3.172   0.718   9.796
 3514W        W10823  18.823   7.882   9.780
 3515W        W10824   2.211   6.458   8.371
 3516W        W10825  15.856   9.288   7.889
 3517W        W10826  12.481   2.654   0.716
 3518W        W10827  13.913   8.337   6.462
 3519W        W10828  14.439   3.114   6.920
 3520W        W10829  11.490   2.162   5.995
 3521W        W10830  17.852   2.635   7.866
 3522W        W10831   1.241   0.241   9.794
 3523W        W10832   7.099   8.345   1.221
 3524W        W10833   4.164   0.743   8.828
 3525W        W10834   2.225   7.422   0.716
 3526W        W10835  16.858   4.560   7.858
 3527W        W10836   6.628   5.038   0.265
 3528W        W10837   7.098   4.073   6.950
 3529W        W10838  12.975   6.943   0.750
 3530W        W10839   3.174   4.562   6.429
 3531W        W10840   6.135   9.782   5.972
 3532W        W10841  14.430   3.584   0.732
 3533W        W10842  17.840   3.142   8.365
 3534W        W10843  12.482   5.982   8.338
 3535W        W10844  12.455   9.300   6.917
 3536W        W10845  16.865   9.768   6.907
 3537W        W10846  17.814   0.747   5.985
 3538W        W10847  16.384   7.428   8.365
 3539W        W10848  19.276   1.703   6.919
 3540W        W10849  15.869   4.534   9.805
 3541W        W10850   4.190   5.991   7.391
 3542W        W10851   0.739   1.706   7.406
 3543W        W10852   0.755   5.046   9.788
 3544W        W10853  13.441   9.324   8.823
 3545W        W10854  10.505   3.618   7.414
 3546W        W10855  17.322   0.257   7.409
 3547W        W10856   6.141   2.172   7.419
 3548W        W10857   7.568   6.917   7.904
 3549W        W10858   4.148   1.215   8.837
 3550W        W10859   5.622   1.694   9.289
 3551W        W10860  19.789   6.930   6.453
 3552W        W10861   5.635   0.718   8.347
 3553W        W10862  12.940   8.361   7.391
 3554W        W10863  12.968   1.192   8.850
 3555W        W10864  13.435   8.854   0.733
 3556W        W10865   8.075   6.446   5.975
 3557W        W10866  10.987   0.267   7.873
 3558W        W10867  16.865   2.159   0.280
 3559W        W10868  11.492   1.677   7.886
 3560W        W10869   2.212   5.986   9.321
 3561W        W10870  10.999   6.437   6.949
 3562W        W10871  16.357   8.852   9.292
 3563W        W10872   9.527   0.243   6.433
 3564W        W10873  12.464   7.428   6.473
 3565W        W10874  10.527   3.135   6.912
 3566W        W10875  12.951   5.008   9.333
 3567W        W10876  15.892   1.236   8.820
 3568W        W10877   1.256   7.889   8.830
 3569W        W10878  16.353   2.151   0.242
 3570W        W10879   3.660   3.574   6.455
 3571W        W10880   0.753   5.490   7.864
 3572W        W10881  13.924   8.378   8.828
 3573W        W10882  12.446   7.412   6.940
 3574W        W10883   2.716   7.870   7.892
 3575W        W10884  16.865   8.852   7.417
 3576W        W10885   1.750   0.741   5.989
 3577W        W10886   4.673   5.970   8.342
 3578W        W10887   7.566   3.592   7.887
 3579W        W10888  15.882   1.667   7.388
 3580W        W10889  18.320   1.219   7.873
 3581W        W10890  14.428   1.222   9.765
 3582W        W10891  15.412   1.234   9.790
 3583W        W10892   1.239   1.713   5.976
 3584W        W10893  19.770   6.464   0.285
 3585W        W10894   9.560   0.263   9.798
 3586W        W10895  18.824   8.353   8.825
 3587W        W10896  11.954   7.409   9.794
 3588W        W10897  12.956   9.317   5.955
 3589W        W10898   7.086   9.807   8.349
 3590W        W10899  19.773   1.228   0.729
 3591W        W10900   9.061   0.761   8.360
 3592W        W10901   0.286   0.281   8.359
 3593W        W10902   4.643   1.708   6.917
 3594W        W10903   6.123   0.271   1.691
 3595W        W10904   7.095   3.576   7.888
 3596W        W10905   7.088   9.783   7.405
 3597W        W10906   1.716   5.020   6.439
 3598W        W10907   5.153   9.299   8.843
 3599W        W10908  12.439   0.725   8.843
 3600W        W10909   2.223   1.681   0.267
 3601W        W10910   6.627   3.574   9.303
 3602W        W10911  19.286   5.039   6.915
 3603W        W10912   3.180   8.347   9.783
 3604W        W10913   3.703   1.233   9.298
 3605W        W10914  11.475   5.964   7.407
 3606W        W10915   6.122   3.099   8.844
 3607W        W10916   7.593   0.276   7.865
 3608W        W10917  12.935   1.210   9.794
 3609W        W10918   1.256   1.194   7.861
 3610W        W10919  14.879   0.725   9.793
 3611W        W10920  16.840   4.081   7.860
 3612W        W10921   2.717   7.882   0.240
 3613W        W10922  19.283   8.836   0.746
 3614W        W10923  10.026   0.734   6.476
 3615W        W10924   8.069   4.529   9.786
 3616W        W10925  15.404   2.663   0.278
 3617W        W10926   6.099   5.970   6.466
 3618W        W10927  10.977   2.650   6.939
 3619W        W10928   6.589   1.688   8.839
 3620W        W10929   7.581   2.187   0.280
 3621W        W10930  10.002   8.336   8.834
 3622W        W10931  10.031   5.504   0.725
 3623W        W10932   8.538   5.988   9.332
 3624W        W10933  12.465   7.881   6.938
 3625W        W10934  11.468   1.701   0.730
 3626W        W10935   1.741   3.609   6.455
 3627W        W10936   1.244   4.555   5.990
 3628W        W10937   4.657   6.905   6.935
 3629W        W10938  16.384   6.436   0.257
 3630W        W10939   8.582   3.615   9.296
 3631W        W10940   8.064   4.560   8.855
 3632W        W10941  11.509   0.265   9.770
 3633W        W10942   1.744   0.731   0.254
 3634W        W10943  13.433   2.156   7.859
 3635W        W10944  18.295   3.609   9.765
 3636W        W10945   8.568   7.864   7.887
 3637W        W10946   1.737   9.321   8.831
 3638W        W10947  14.906   9.797   0.759
 3639W        W10948   2.725   0.731   8.840
 3640W        W10949   8.547   3.115   9.802
 3641W        W10950   3.174   5.972   8.850
 3642W        W10951   3.172   8.357   7.406
 3643W        W10952  10.019   5.965   0.265
 3644W        W10953   8.574   7.400   9.781
 3645W        W10954  14.884   7.869   9.807
 3646W        W10955  13.938   9.775   7.895
 3647W        W10956   0.250   0.255   0.743
 3648W        W10957  16.352   2.156   7.421
 3649W        W10958  13.942   3.132   8.338
 3650W        W10959   5.127   3.606   8.364
 3651W        W10960   4.153   5.513   5.970
 3652W        W10961  18.792   9.309   9.770
 3653W        W10962   3.676   8.369   7.894
 3654W        W10963  18.818   5.489   1.207
 3655W        W10964   7.100   0.715   0.757
 3656W        W10965  12.959   6.467   9.780
 3657W        W10966  11.004   8.362   6.929
 3658W        W10967   1.753   3.127   6.475
 3659W        W10968   3.679   9.803   7.388
 3660W        W10969  16.358   1.679   0.243
 3661W        W10970  16.831   8.367   8.836
 3662W        W10971   9.056   8.819   7.392
 3663W        W10972   8.565   5.510   8.370
 3664W        W10973  14.409   2.665   0.258
 3665W        W10974   2.208   0.741   8.834
 3666W        W10975  11.013   3.614   6.920
 3667W        W10976   7.571   6.429   6.906
 3668W        W10977   0.737   5.507   9.794
 3669W        W10978  15.867   3.617   7.419
 3670W        W10979  19.286   1.683   8.343
 3671W        W10980   1.261   6.917   7.408
 3672W        W10981   2.689   6.437   7.405
 3673W        W10982  15.885   3.587   7.868
 3674W        W10983   7.588   5.999   0.250
 3675W        W10984  17.348   3.140   9.324
 3676W        W10985   1.220   6.435   0.724
 3677W        W10986  12.461   3.589   0.735
 3678W        W10987  10.043   3.603   7.887
 3679W        W10988  15.408   7.880   8.837
 3680W        W10989   2.702   9.300   6.468
 3681W        W10990   6.130   0.730   6.461
 3682W        W10991  18.813   2.659   9.292
 3683W        W10992  14.399   0.245   7.899
 3684W        W10993  18.319   2.159   8.335
 3685W        W10994   3.190   4.069   0.741
 3686W        W10995  12.475   2.189   7.901
 3687W        W10996   7.570   1.688   7.381
 3688W        W10997  10.013   4.093   9.781
 3689W        W10998   7.561   6.910   7.412
 3690W        W10999   0.260   9.795   8.363
 3691W        W11000   9.039   5.976   6.907
 3692W        W11001   1.747   5.523   0.750
 3693W        W11002  10.982   9.786   8.357
 3694W        W11003   0.260   2.658   0.729
 3695W        W11004  12.972   2.656   8.837
 3696W        W11005  18.790   1.217   9.803
 3697W        W11006  19.802   7.410   9.774
 3698W        W11007   2.234   6.936   9.809
 3699W        W11008   5.149   0.268   7.894
 3700W        W11009   4.175   6.455   7.427
 3701W        W11010   4.675   9.809   9.301
 3702W        W11011  17.821   2.634   0.247
 3703W        W11012   3.202   2.628   8.356
 3704W        W11013  11.980   3.589   0.737
 3705W        W11014   6.134   8.833   9.303
 3706W        W11015   1.735   7.423   7.428
 3707W        W11016  11.963   6.925   6.925
 3708W        W11017  15.391   5.025   7.866
 3709W        W11018   1.245   7.393   6.450
 3710W        W11019  12.961   2.651   8.374
 3711W        W11020   3.203   9.806   0.265
 3712W        W11021  14.883   7.872   7.901
 3713W        W11022  10.990   1.225   0.243
 3714W        W11023  12.954   7.900   8.348
 3715W        W11024  15.399   6.927   6.946
 3716W        W11025  19.280   4.562   9.766
 3717W        W11026   4.677   9.325   9.300
 3718W        W11027  19.301   0.744   0.722
 3719W        W11028  11.496   5.490   6.441
 3720W        W11029  12.475   8.846   5.992
 3721W        W11030  17.353   0.272   9.771
 3722W        W11031   1.240   4.550   8.814
 3723W        W11032  12.959   4.545   9.794
 3724W        W11033   0.745   4.540   7.887
 3725W        W11034  18.338   7.866   7.419
 3726W        W11035  12.474   5.515   0.247
 3727W        W11036   1.268   6.456   7.396
 3728W        W11037  11.970   3.127   0.259
 3729W        W11038  11.496   8.371   9.779
 3730W        W11039   9.029   5.515   8.371
 3731W        W11040  12.464   9.790   0.267
 3732W        W11041  17.360   9.317   7.414
 3733W        W11042  12.453   3.587   6.930
 3734W        W11043  13.913   1.210   8.810
 3735W        W11044   0.761   4.534   9.798
 3736W        W11045   9.047   3.132   0.257
 3737W        W11046   1.747   0.271   9.295
 3738W        W11047  19.769   8.813   0.750
 3739W        W11048   6.616   1.706   9.332
 3740W        W11049   6.595   1.209   0.268
 3741W        W11050   3.216   8.849   8.343
 3742W        W11051  11.961   1.228   6.471
 3743W        W11052   8.547   7.388   0.716
 3744W        W11053  18.306   5.492   0.749
 3745W        W11054   2.200   6.937   6.444
 3746W        W11055   0.264   1.710   8.819
 3747W        W11056  10.013   0.730   0.279
 3748W        W11057   5.126   4.081   0.714
 3749W        W11058   3.206   6.449   9.298
 3750W        W11059   8.552   1.238   8.833
 3751W        W11060  12.975   9.315   9.793
 3752W        W11061  10.489   3.617   9.766
 3753W        W11062  10.501   4.084   0.744
 3754W        W11063  12.484   6.945   5.954
 3755W        W11064   0.749   3.618   6.475
 3756W        W11065   2.726   0.736   7.381
 3757W        W11066  14.419   9.787   6.913
 3758W        W11067  10.982   3.131   6.457
 3759W        W11068   8.090   6.476   8.826
 3760W        W11069   4.172   7.423   8.373
 3761W        W11070   2.709   8.850   0.723
 3762W        W11071  13.443   6.932   0.742
 3763W        W11072   6.134   6.438   9.311
 3764W        W11073   7.568   0.253   7.407
 3765W        W11074   6.593   5.990   0.281
 3766W        W11075  19.779   0.241   9.800
 3767W        W11076   0.275   2.169   9.319
 3768W        W11077  10.000   3.111   9.768
 3769W        W11078  11.479   9.296   9.304
 3770W        W11079   8.054   7.401   6.952
 3771W        W11080   3.195   6.935   5.966
 3772W        W11081  12.949   1.204   0.249
 3773W        W11082  11.495   5.483   7.885
 3774W        W11083  14.413   1.686   9.765
 3775W        W11084   3.697   2.158   8.375
 3776W        W11085   1.714   1.191   6.931
 3777W        W11086  18.786   6.445   7.892
 3778W        W11087   5.649   9.313   9.794
 3779W        W11088   5.169   8.845   7.423
 3780W        W11089   4.650   2.149   9.306
 3781W        W11090   7.587   9.793   8.850
 3782W        W11091   2.243   8.843   6.445
 3783W        W11092   9.551   2.189   6.451
 3784W        W11093  16.390   5.479   9.785
 3785W        W11094   4.177   1.685   8.829
 3786W        W11095  16.384   5.505   7.412
 3787W        W11096  13.416   3.595   8.812
 3788W        W11097   2.698   4.535   9.325
 3789W        W11098  16.351   8.375   6.915
 3790W        W11099   8.049   7.422   5.984
 3791W        W11100  19.791   2.162   0.248
 3792W        W11101  11.015   8.836   6.471
 3793W        W11102   7.117   3.591   6.905
 3794W        W11103   8.554   8.854   9.310
 3795W        W11104  13.439   2.153   8.364
 3796W        W11105   7.579   0.280   0.278
 3797W        W11106   3.185   1.678   6.946
 3798W        W11107  10.037   5.993   6.444
 3799W        W11108   3.196   8.361   0.266
 3800W        W11109   1.232   6.469   9.789
 3801W        W11110   4.194   8.851   0.735
 3802W        W11111   1.251   5.988   8.345
 3803W        W11112   6.605   5.962   6.949
 3804W        W11113  13.419   3.131   6.449
 3805W        W11114   8.058   7.392   6.438
 3806W        W11115   7.083   3.131   8.380
 3807W        W11116   4.664   6.934   6.430
 3808W        W11117   1.740   5.491   7.873
 3809W        W11118  13.455   8.823   6.462
 3810W        W11119  14.925   7.400   6.459
 3811W        W11120   3.694   5.506   8.347
 3812W        W11121   7.077   9.296   7.872
 3813W        W11122  16.349   4.059   0.730
 3814W        W11123  19.283   5.021   8.336
 3815W        W11124   6.103   0.725   9.809
 3816W        W11125  15.378   2.152   7.388
 3817W        W11126   4.148   9.768   7.871
 3818W        W11127   4.189   1.711   8.377
 3819W        W11128  11.986   5.043   7.394
 3820W        W11129  13.931   0.260   8.362
 3821W        W11130   0.271   4.545   8.355
 3822W        W11131  14.894   2.144   0.743
 3823W        W11132   7.581   3.605   6.944
 3824W        W11133  18.297   6.916   9.798
 3825W        W11134  16.373   5.501   0.267
 3826W        W11135  19.799   9.805   8.351
 3827W        W11136  18.295   6.450   6.946
 3828W        W11137  18.815   1.210   0.760
 3829W        W11138   0.776   9.794   8.846
 3830W        W11139  10.986   1.678   7.399
 3831W        W11140  16.866   7.404   6.946
 3832W        W11141   4.162   9.798   6.458
 3833W        W11142  11.022   1.203   8.832
 3834W        W11143   6.124   9.304   6.441
 3835W        W11144   7.086   9.286   9.329
 3836W        W11145   6.617   6.432   8.851
 3837W        W11146   7.085   5.514   6.446
 3838W        W11147  14.420   7.880   5.993
 3839W        W11148   7.583   0.744   8.368
 3840W        W11149  13.949   8.360   0.740
 3841W        W11150   3.678   3.105   9.302
 3842W        W11151  17.351   8.835   9.800
 3843W        W11152  16.878   3.112   8.366
 3844W        W11153  10.044   7.891   0.753
 3845W        W11154  12.958   0.256   6.470
 3846W        W11155   7.080   5.976   7.860
 3847W        W11156   4.667   8.822   7.871
 3848W        W11157   0.755   5.021   0.253
 3849W        W11158  18.337   5.999   9.777
 3850W        W11159  18.808   5.508   7.388
 3851W        W11160  12.447   7.871   5.999
 3852W        W11161   3.702   5.036   9.799
 3853W        W11162   9.525   6.916   9.293
 3854W        W11163   1.266   3.618   7.421
 3855W        W11164  10.518   8.343   0.258
 3856W        W11165  17.845   4.561   7.881
 3857W        W11166  12.955   8.849   0.249
 3858W        W11167   2.728   2.653   0.256
 3859W        W11168  11.489   0.279   9.330
 3860W        W11169   3.187   4.069   0.262
 3861W        W11170  10.981   3.118   8.346
 3862W        W11171   8.553   7.395   7.422
 3863W        W11172  14.403   1.707   7.417
 3864W        W11173   9.533   0.746   0.722
 3865W        W11174  13.433   3.577   8.378
 3866W        W11175   5.635   5.973   8.339
 3867W        W11176  17.331   1.702   8.335
 3868W        W11177   9.534   5.998   8.832
 3869W        W11178  12.973   3.112   6.923
 3870W        W11179  10.501   0.284   9.322
 3871W        W11180   5.616   3.574   6.429
 3872W        W11181   5.647   2.170   8.848
 3873W        W11182   2.205   9.292   9.767
 3874W        W11183   4.171   3.103   6.464
 3875W        W11184  10.493   2.146   0.748
 3876W        W11185   5.145   0.279   0.254
 3877W        W11186   0.271   8.347   7.879
 3878W        W11187  19.774   4.087   0.719
 3879W        W11188  19.790   5.993   9.319
 3880W        W11189  19.275   3.129   9.769
 3881W        W11190  16.845   6.464   7.408
 3882W        W11191   7.600   5.520   7.859
 3883W        W11192  14.896   1.210   7.423
 3884W        W11193  11.024   9.330   7.397
 3885W        W11194  14.899   5.969   8.823
 3886W        W11195  10.999   4.076   0.265
 3887W        W11196   4.155   8.374   6.946
 3888W        W11197  11.474   3.577   6.936
 3889W        W11198  17.853   1.194   6.442
 3890W        W11199   7.566   6.950   8.343
 3891W        W11200  13.915   7.421   8.854
 3892W        W11201  14.913   0.733   1.229
 3893W        W11202  11.493   6.949   0.261
 3894W        W11203  17.850   6.934   8.348
 3895W        W11204  15.901   4.560   0.742
 3896W        W11205  18.333   3.136   0.256
 3897W        W11206   5.169   3.616   0.284
 3898W        W11207   4.641   4.074   7.861
 3899W        W11208  15.901   3.099   0.247
 3900W        W11209   1.227   0.746   9.795
 3901W        W11210  13.911   3.108   6.448
 3902W        W11211   1.748   3.103   8.362
 3903W        W11212  15.406   5.000   8.363
 3904W        W11213  12.460   1.228   7.403
 3905W        W11214  11.991   9.807   7.392
 3906W        W11215  19.765   2.176   8.820
 3907W        W11216   7.110   4.048   7.420
 3908W        W11217  12.443   3.136   8.838
 3909W        W11218   2.204   1.210   9.324
 3910W        W11219  10.023   4.542   7.881
 3911W        W11220  16.835   0.725   7.896
 3912W        W11221  12.439   5.986   9.286
 3913W        W11222   4.668   3.579   9.307
 3914W        W11223   6.591   2.152   0.249
 3915W        W11224  18.332   1.223   8.817
 3916W        W11225  19.800   8.345   8.826
 3917W        W11226  14.399   0.741   8.812
 3918W        W11227  18.802   9.318   8.816
 3919W        W11228  12.958   4.532   9.289
 3920W        W11229  19.804   6.451   9.777
 3921W        W11230  10.047   5.485   7.427
 3922W        W11231  14.924   5.019   6.948
 3923W        W11232   2.695   5.010   6.937
 3924W        W11233  10.037   2.628   9.310
 3925W        W11234  13.430   1.712   0.721
 3926W        W11235   5.167   8.361   9.798
 3927W        W11236  14.907   4.562   6.916
 3928W        W11237   9.038   0.273   0.274
 3929W        W11238  17.360   5.021   0.265
 3930W        W11239  15.867   9.327   6.429
 3931W        W11240   2.689   0.717   8.372
 3932W        W11241  16.866   2.158   8.846
 3933W        W11242  16.345   0.734   8.348
 3934W        W11243  14.400   8.812   0.748
 3935W        W11244   9.520   8.335   9.769
 3936W        W11245   6.600   1.208   8.817
 3937W        W11246  15.367   5.511   9.298
 3938W        W11247  14.907   9.792   9.785
 3939W        W11248   1.252   9.781   9.289
 3940W        W11249  15.901   1.697   0.239
 3941W        W11250   4.679   1.678   9.330
 3942W        W11251  13.452   5.974   0.752
 3943W        W11252  18.318   0.735   9.309
 3944W        W11253  16.376   5.988   8.363
 3945W        W11254  15.414   2.147   6.466
 3946W        W11255  17.823   4.089   9.304
 3947W        W11256  10.519   5.973   6.469
 3948W        W11257  16.356   5.042   7.426
 3949W        W11258   8.555   4.054   6.476
 3950W        W11259   5.156   1.668   9.766
 3951W        W11260  11.010   5.964   9.782
 3952W        W11261   6.142   7.900   6.912
 3953W        W11262  11.466   8.376   7.859
 3954W        W11263  12.951   5.980   0.251
 3955W        W11264  19.779   5.496   0.727
 3956W        W11265   4.635   3.596   6.460
 3957W        W11266   5.142   8.811   9.306
 3958W        W11267  11.482   6.936   9.797
 3959W        W11268   2.238   0.268   7.424
 3960W        W11269   8.050   4.049   8.841
 3961W        W11270  10.512   6.914   8.376
 3962W        W11271   5.164   4.064   6.940
 3963W        W11272   5.652   2.145   7.389
 3964W        W11273  11.979   7.888   8.820
 3965W        W11274   6.590   5.012   8.822
 3966W        W11275   9.550   7.877   7.411
 3967W        W11276  19.282   4.089   0.283
 3968W        W11277   7.121   2.154   8.824
 3969W        W11278  14.394   3.587   9.327
 3970W        W11279   9.526   4.075   8.374
 3971W        W11280  10.500   1.229   8.368
 3972W        W11281  18.304   7.883   9.806
 3973W        W11282  11.987   4.072   6.914
 3974W        W11283   5.152   9.287   0.250
 3975W        W11284   4.671   9.308   9.802
 3976W        W11285  19.768   4.554   6.913
 3977W        W11286   2.203   1.714   0.759
 3978W        W11287  10.047   4.052   9.306
 3979W        W11288  11.010   4.540   9.785
 3980W        W11289  11.509   4.050   8.369
 3981W        W11290  11.491   7.419   9.790
 3982W        W11291   6.630   9.781   7.901
 3983W        W11292   8.542   5.484   9.295
 3984W        W11293  10.512   6.446   0.268
 3985W        W11294   1.229   2.171   9.330
 3986W        W11295  12.931   5.993   5.991
 3987W        W11296  16.387   3.614   6.912
 3988W        W11297   5.649   8.362   7.411
 3989W        W11298  19.298   3.587   0.752
 3990W        W11299   1.730   5.019   9.310
 3991W        W11300   8.052   4.537   0.733
 3992W        W11301  10.515   7.873   8.816
 3993W        W11302   0.741   8.367   7.412
 3994W        W11303  13.418   1.693   5.994
 3995W        W11304   1.257   1.704   6.919
 3996W        W11305   0.733   0.755   8.848
 3997W        W11306   7.609   5.025   0.743
 3998W        W11307   7.589   0.756   7.863
 3999W        W11308  10.520   6.469   0.760
 4000W        W11309   3.195   4.060   6.923
 4001W        W11310   6.632   9.302   9.807
 4002W        W11311  10.993   5.491   5.994
 4003W        W11312   8.545   2.149   7.861
 4004W        W11313   0.263   6.936   7.405
 4005W        W11314  12.973   5.990   8.831
 4006W        W11315  17.820   6.946   9.791
 4007W        W11316  14.881   1.192   8.378
 4008W        W11317   9.058   2.659   6.440
 4009W        W11318   8.054   5.969   7.872
 4010W        W11319   9.517   8.360   6.911
 4011W        W11320   0.259   7.405   8.373
 4012W        W11321  15.886   6.907   0.241
 4013W        W11322   2.223   0.718   5.970
 4014W        W11323   0.734   2.162   0.267
 4015W        W11324  12.484   3.597   0.257
 4016W        W11325  11.469   8.851   0.729
 4017W        W11326  17.365   2.167   7.411
 4018W        W11327  18.336   0.248   0.745
 4019W        W11328  19.294   9.788   7.386
 4020W        W11329  13.423   1.684   8.338
 4021W        W11330  11.509   8.855   7.879
 4022W        W11331   0.277   0.275   9.795
 4023W        W11332   8.088   5.491   5.969
 4024W        W11333   2.704   9.316   6.933
 4025W        W11334  17.352   0.741   6.437
 4026W        W11335   4.189   4.068   9.800
 4027W        W11336   8.579   7.896   6.948
 4028W        W11337   4.166   1.704   9.290
 4029W        W11338  16.349   8.814   0.263
 4030W        W11339  18.332   6.906   0.721
 4031W        W11340   3.202   7.411   7.883
 4032W        W11341   5.130   3.113   7.868
 4033W        W11342   3.190   3.110   7.881
 4034W        W11343   6.137   5.487   8.824
 4035W        W11344   6.620   6.476   9.331
 4036W        W11345   1.249   7.427   9.797
 4037W        W11346  10.494   0.260   8.354
 4038W        W11347   2.236   2.155   6.447
 4039W        W11348   8.093   3.590   9.323
 4040W        W11349   9.047   4.095   0.241
 4041W        W11350  11.509   2.644   7.868
 4042W        W11351  15.366   6.907   0.722
 4043W        W11352  11.019   6.437   8.853
 4044W        W11353  19.782   0.282   8.339
 4045W        W11354  18.818   1.704   7.863
 4046W        W11355  11.482   9.325   9.809
 4047W        W11356   2.694   0.740   6.455
 4048W        W11357   8.097   3.123   7.422
 4049W        W11358  14.898   1.197   6.941
 4050W        W11359  12.957   2.645   6.941
 4051W        W11360   9.533   7.883   6.459
 4052W        W11361   9.036   4.077   9.292
 4053W        W11362   6.589   3.608   8.368
 4054W        W11363  19.314   2.181   8.833
 4055W        W11364   9.551   5.482   9.787
 4056W        W11365   7.078   4.053   8.369
 4057W        W11366   5.138   9.782   7.863
 4058W        W11367  11.974   6.949   9.777
 4059W        W11368  13.445   4.548   0.282
 4060W        W11369  15.382   8.364   9.762
 4061W        W11370  11.004   2.157   0.280
 4062W        W11371   6.110   5.002   0.269
 4063W        W11372   9.033   5.523   9.327
 4064W        W11373  14.917   8.354   7.858
 4065W        W11374   1.254   8.375   9.315
 4066W        W11375   1.737   1.688   5.954
 4067W        W11376   9.540   9.295   9.783
 4068W        W11377   0.754   8.841   6.445
 4069W        W11378   2.217   8.355   9.310
 4070W        W11379   4.179   8.352   0.260
 4071W        W11380   3.209   5.505   1.234
 4072W        W11381  17.329   9.309   9.764
 4073W        W11382   0.762   2.168   7.870
 4074W        W11383   4.653   4.534   7.881
 4075W        W11384   7.112   0.739   6.465
 4076W        W11385   3.684   9.313   5.981
 4077W        W11386  14.419   5.982   9.805
 4078W        W11387  17.820   1.203   6.941
 4079W        W11388  18.309   0.264   6.915
 4080W        W11389  16.854   3.574   8.824
 4081W        W11390  10.994   5.046   7.398
 4082W        W11391   7.606   3.124   0.718
 4083W        W11392  10.513   9.332   8.335
 4084W        W11393  10.532   7.890   8.373
 4085W        W11394  17.838   1.703   0.747
 4086W        W11395  16.353   3.114   5.997
 4087W        W11396   9.546   8.819   9.287
 4088W        W11397   3.667   7.419   6.918
 4089W        W11398  12.966   0.241   0.262
 4090W        W11399  13.433   8.378   9.776
 4091W        W11400  11.988   2.626   0.253
 4092W        W11401  16.870   7.400   0.735
 4093W        W11402   8.583   9.774   7.858
 4094W        W11403   6.586   2.175   7.879
 4095W        W11404  14.422   3.109   0.722
 4096W        W11405   6.588   4.525   8.817
 4097W        W11406   2.731   7.891   7.399
 4098W        W11407  19.802   4.551   9.301
 4099W        W11408  10.027   0.246   8.816
 4100W        W11409  13.448   7.901   8.362
 4101W        W11410  11.997   0.754   7.383
 4102W        W11411   5.130   5.519   6.456
 4103W        W11412  19.308   6.945   7.871
 4104W        W11413   3.667   0.750   6.433
 4105W        W11414  11.992   4.541   9.802
 4106W        W11415   3.665   8.346   9.318
 4107W        W11416   6.109   5.957   0.251
 4108W        W11417   4.190   5.998   8.356
 4109W        W11418   1.747   4.541   8.368
 4110W        W11419  15.877   8.367   9.304
 4111W        W11420  14.923   4.547   0.244
 4112W        W11421   6.111   0.249   9.800
 4113W        W11422  19.288   1.693   9.286
 4114W        W11423   9.549   9.321   0.259
 4115W        W11424  11.465   8.833   9.772
 4116W        W11425  10.029   9.288   7.868
 4117W        W11426   7.094   8.346   5.963
 4118W        W11427  19.300   2.169   7.872
 4119W        W11428   2.203   5.040   0.274
 4120W        W11429   2.233   3.614   9.327
 4121W        W11430   4.152   9.295   0.736
 4122W        W11431   8.098   5.017   9.772
 4123W        W11432   2.222   1.701   6.936
 4124W        W11433   5.137   0.264   6.471
 4125W        W11434   2.709   0.282   9.303
 4126W        W11435   2.206   5.028   9.327
 4127W        W11436  19.781   2.180   0.717
 4128W        W11437   6.106   6.432   8.366
 4129W        W11438   7.593   5.505   0.252
 4130W        W11439   3.173   9.322   9.315
 4131W        W11440  19.277   3.584   8.352
 4132W        W11441   2.707   5.479   7.864
 4133W        W11442   0.778   1.208   6.927
 4134W        W11443   1.235   5.004   6.907
 4135W        W11444   0.757   5.954   7.869
 4136W        W11445   1.729   9.797   0.753
 4137W        W11446  19.310   9.303   6.468
 4138W        W11447  18.315   9.324   0.746
 4139W        W11448   6.599   7.888   8.334
 4140W        W11449   2.205   8.857   0.735
 4141W        W11450   8.584   5.511   6.431
 4142W        W11451   0.774   5.033   0.719
 4143W        W11452  14.414   9.296   7.391
 4144W        W11453   2.706   5.045   9.762
 4145W        W11454   6.137   3.578   8.839
 4146W        W11455  16.840   7.417   9.784
 4147W        W11456   6.137   4.569   8.364
 4148W        W11457  10.043   8.358   7.894
 4149W        W11458   3.184   8.340   7.872
 4150W        W11459  17.347   1.684   9.782
 4151W        W11460   3.667   9.305   9.803
 4152W        W11461  15.377   5.997   8.334
 4153W        W11462   5.629   8.831   6.941
 4154W        W11463  18.325   2.168   7.408
 4155W        W11464  10.514   5.982   7.870
 4156W        W11465   0.247   7.895   6.437
 4157W        W11466  10.040   2.638   6.919
 4158W        W11467  16.859   7.403   7.890
 4159W        W11468  14.433   2.172   7.880
 4160W        W11469  18.799   2.659   7.883
 4161W        W11470   3.687   9.797   0.754
 4162W        W11471  16.343   1.710   9.788
 4163W        W11472   9.057   7.406   9.764
 4164W        W11473   0.746   4.064   7.402
 4165W        W11474  16.346   5.983   7.903
 4166W        W11475   6.132   5.511   0.715
 4167W        W11476   4.681   8.853   6.941
 4168W        W11477  11.493   1.200   8.347
 4169W        W11478   5.612   5.004   0.726
 4170W        W11479  13.917   5.026   5.967
 4171W        W11480   2.198   1.709   7.892
 4172W        W11481  18.787   6.942   7.874
 4173W        W11482  16.361   6.937   5.964
 4174W        W11483   6.603   9.769   7.394
 4175W        W11484  14.407   7.901   7.406
 4176W        W11485  19.299   3.105   0.730
 4177W        W11486  18.319   7.401   6.948
 4178W        W11487  19.291   9.795   9.323
 4179W        W11488   3.199   6.910   6.943
 4180W        W11489  15.868   4.565   9.328
 4181W        W11490  12.447   2.644   5.968
 4182W        W11491   1.753   4.551   6.462
 4183W        W11492  14.895   4.091   7.425
 4184W        W11493  10.047   5.013   6.906
 4185W        W11494  19.280   2.631   8.341
 4186W        W11495  19.310   4.070   9.312
 4187W        W11496  15.398   4.547   6.447
 4188W        W11497   0.748   6.438   8.370
 4189W        W11498  12.927   8.845   6.936
 4190W        W11499  15.893   2.665   6.927
 4191W        W11500   0.289   6.462   9.313
 4192W        W11501   8.565   3.133   6.462
 4193W        W11502  15.897   1.685   6.926
 4194W        W11503   0.752   1.233   8.364
 4195W        W11504   8.067   0.715   8.341
 4196W        W11505   0.741   0.718   0.735
 4197W        W11506   9.548   4.051   8.810
 4198W        W11507  17.831   7.392   8.822
 4199W        W11508   2.234   8.360   1.218
 4200W        W11509  10.490   5.513   0.716
 4201W        W11510   5.123   8.845   0.727
 4202W        W11511   2.697   7.885   9.768
 4203W        W11512   1.259   4.050   0.730
 4204W        W11513  12.971   5.982   7.428
 4205W        W11514   3.660   5.039   8.833
 4206W        W11515   4.634   1.193   6.439
 4207W        W11516   4.162   7.385   8.855
 4208W        W11517   5.633   3.597   7.401
 4209W        W11518  19.793   0.739   0.727
 4210W        W11519  16.376   6.922   6.442
 4211W        W11520   9.523   5.979   5.495
 4212W        W11521  12.458   1.692   8.335
 4213W        W11522   6.102   8.818   7.405
 4214W        W11523  17.848   5.998   8.357
 4215W        W11524  15.877   3.586   6.924
 4216W        W11525   7.090   6.905   6.927
 4217W        W11526  16.377   8.856   0.739
 4218W        W11527   1.222   8.339   8.380
 4219W        W11528   2.206   7.900   7.395
 4220W        W11529   4.190   6.917   6.430
 4221W        W11530   8.080   9.295   8.811
 4222W        W11531  12.455   8.827   8.854
 4223W        W11532  17.346   3.613   0.274
 4224W        W11533   0.749   9.291   6.446
 4225W        W11534  12.444   1.693   0.273
 4226W        W11535  19.297   1.217   8.336
 4227W        W11536   1.748   9.807   8.827
 4228W        W11537   7.593   4.556   8.342
 4229W        W11538  12.455   6.924   6.467
 4230W        W11539   8.579   9.784   9.776
 4231W        W11540   2.712   2.146   9.809
 4232W        W11541   4.654   2.168   0.751
 4233W        W11542   0.752   9.332   8.850
 4234W        W11543   1.230   8.353   0.286
 4235W        W11544  18.300   2.154   5.968
 4236W        W11545   0.272   9.297   9.768
 4237W        W11546  18.302   1.221   9.809
 4238W        W11547  10.044   1.681   5.956
 4239W        W11548  18.824   5.025   5.969
 4240W        W11549   9.060   9.794   9.286
 4241W        W11550   1.258   4.549   0.275
 4242W        W11551   7.084   4.090   0.282
 4243W        W11552  10.027   6.465   9.763
 4244W        W11553   7.574   5.988   8.853
 4245W        W11554   1.718   5.968   9.327
 4246W        W11555   4.167   0.736   5.988
 4247W        W11556   4.682   8.366   8.338
 4248W        W11557  11.965   8.826   8.837
 4249W        W11558   5.620   0.273   5.999
 4250W        W11559   8.069   1.690   9.780
 4251W        W11560   8.090   9.312   9.310
 4252W        W11561  18.312   1.699   6.436
 4253W        W11562  14.433   4.073   0.271
 4254W        W11563   5.619   6.909   9.776
 4255W        W11564   2.708   9.768   6.913
 4256W        W11565   9.026   9.318   5.969
 4257W        W11566   4.678   2.641   6.429
 4258W        W11567  12.482   5.964   6.938
 4259W        W11568   3.202   5.023   9.310
 4260W        W11569   7.098   6.443   7.867
 4261W        W11570   2.728   0.281   7.415
 4262W        W11571  11.003   7.396   7.400
 4263W        W11572   8.075   6.930   6.456
 4264W        W11573  18.786   7.428   0.269
 4265W        W11574  18.817   7.394   6.474
 4266W        W11575  14.899   0.248   7.880
 4267W        W11576   4.187   3.099   9.765
 4268W        W11577   6.633   0.731   8.353
 4269W        W11578  18.306   3.098   8.848
 4270W        W11579   9.529   2.189   7.870
 4271W        W11580  16.872   5.038   8.341
 4272W        W11581  12.451   4.067   8.855
 4273W        W11582  14.922   6.914   0.248
 4274W        W11583   9.072   9.309   9.295
 4275W        W11584   2.201   6.448   7.403
 4276W        W11585  13.922   6.471   7.391
 4277W        W11586   0.290   5.958   6.925
 4278W        W11587   0.774   5.961   0.276
 4279W        W11588  12.973   4.552   8.818
 4280W        W11589  19.283   4.071   8.368
 4281W        W11590  17.353   7.389   8.838
 4282W        W11591   5.151   6.936   7.414
 4283W        W11592   0.283   1.712   0.283
 4284W        W11593   8.086   3.593   6.431
 4285W        W11594   4.665   7.870   6.468
 4286W        W11595  12.455   6.439   7.384
 4287W        W11596  18.304   8.336   0.732
 4288W        W11597   6.627   4.084   7.410
 4289W        W11598   7.077   4.527   9.318
 4290W        W11599   6.130   4.561   9.294
 4291W        W11600  15.392   2.177   5.993
 4292W        W11601  11.972   3.617   7.886
 4293W        W11602   0.780   6.919   0.729
 4294W        W11603  12.952   6.455   8.832
 4295W        W11604   4.680   1.228   0.276
 4296W        W11605   1.750   4.062   6.443
 4297W        W11606   8.577   2.168   0.728
 4298W        W11607  19.316   7.893   8.366
 4299W        W11608  13.904   3.614   6.942
 4300W        W11609   8.057   9.793   0.754
 4301W        W11610  14.394   2.637   7.412
 4302W        W11611   1.712   3.605   9.301
 4303W        W11612  11.469   0.253   8.346
 4304W        W11613  18.316   5.035   6.937
 4305W        W11614   6.118   0.720   0.736
 4306W        W11615  13.911   2.663   8.354
 4307W        W11616  19.285   6.933   0.251
 4308W        W11617   1.240   5.960   9.299
 4309W        W11618   6.124   0.746   9.302
 4310W        W11619  12.966   9.307   7.870
 4311W        W11620  17.827   8.341   9.302
 4312W        W11621   8.084   5.007   8.852
 4313W        W11622   6.114   1.201   7.874
 4314W        W11623   4.177   7.898   8.856
 4315W        W11624  18.825   4.068   8.845
 4316W        W11625  18.817   9.291   8.353
 4317W        W11626   2.196   8.828   7.863
 4318W        W11627  19.766   5.018   7.419
 4319W        W11628   6.104   1.707   6.466
 4320W        W11629  14.884   8.856   8.853
 4321W        W11630  18.324   0.238   6.458
 4322W        W11631   6.140   7.417   9.300
 4323W        W11632  15.883   8.813   9.791
 4324W        W11633  10.034   3.139   1.225
 4325W        W11634  14.426   2.627   0.752
 4326W        W11635   3.678   5.515   6.450
 4327W        W11636  16.343   7.386   7.858
 4328W        W11637   5.646   5.045   7.409
 4329W        W11638   1.264   9.318   9.304
 4330W        W11639   2.715   6.436   8.823
 4331W        W11640   8.555   5.522   0.716
 4332W        W11641   3.692   4.067   0.258
 4333W        W11642  17.835   4.565   6.920
 4334W        W11643   0.777   7.428   9.809
 4335W        W11644  15.370   0.737   7.384
 4336W        W11645  15.890   4.568   7.393
 4337W        W11646   3.193   1.200   9.793
 4338W        W11647  16.388   0.755   0.266
 4339W        W11648  16.854   9.769   7.412
 4340W        W11649   7.563   3.122   8.825
 4341W        W11650   9.041   6.945   9.322
 4342W        W11651   7.598   7.901   8.353
 4343W        W11652  12.454   9.770   9.288
 4344W        W11653   9.052   9.806   0.243
 4345W        W11654   3.696   1.692   8.342
 4346W        W11655   4.654   6.463   8.855
 4347W        W11656   4.180   3.573   7.872
 4348W        W11657   2.725   1.222   0.755
 4349W        W11658   7.110   8.813   8.812
 4350W        W11659   6.121   4.531   0.269
 4351W        W11660  12.974   5.502   9.324
 4352W        W11661  15.899   5.008   0.265
 4353W        W11662   2.238   6.914   7.422
 4354W        W11663   8.576   2.185   0.270
 4355W        W11664  17.823   1.701   5.952
 4356W        W11665  17.319   1.233   9.799
 4357W        W11666  13.417   0.741   9.287
 4358W        W11667   0.271   8.360   9.783
 4359W        W11668   6.136   8.844   7.894
 4360W        W11669  17.806   6.452   0.250
 4361W        W11670   2.705   6.475   6.923
 4362W        W11671   5.150   8.811   0.245
 4363W        W11672  14.400   0.758   9.803
 4364W        W11673  13.925   0.285   1.228
 4365W        W11674   7.104   8.850   8.336
 4366W        W11675  17.347   6.433   6.435
 4367W        W11676  16.853   5.486   0.260
 4368W        W11677  11.487   8.365   7.393
 4369W        W11678   1.747   5.987   0.272
 4370W        W11679   3.692   8.376   9.783
 4371W        W11680  12.441   6.941   7.401
 4372W        W11681   2.214   5.974   8.844
 4373W        W11682   0.777   0.263   7.386
 4374W        W11683   4.658   7.871   9.791
 4375W        W11684   0.777   4.084   5.992
 4376W        W11685   3.698   5.985   0.277
 4377W        W11686  19.303   8.357   6.949
 4378W        W11687  18.809   0.751   7.886
 4379W        W11688   6.115   5.963   7.387
 4380W        W11689   7.562   8.364   7.398
 4381W        W11690   3.677   0.743   6.919
 4382W        W11691   4.649   6.458   8.355
 4383W        W11692   3.696   8.348   0.744
 4384W        W11693   5.161   4.537   0.731
 4385W        W11694  18.794   3.098   5.995
 4386W        W11695   4.676   0.737   0.283
 4387W        W11696   4.675   8.379   6.434
 4388W        W11697   8.540   6.444   9.776
 4389W        W11698  12.965   0.730   9.309
 4390W        W11699   5.141   6.920   8.378
 4391W        W11700  11.013   0.727   6.948
 4392W        W11701   8.090   0.742   0.267
 4393W        W11702  14.409   5.969   6.450
 4394W        W11703  14.400   8.823   8.350
 4395W        W11704  16.877   4.542   6.915
 4396W        W11705  16.873   5.028   9.287
 4397W        W11706   3.661   1.669   6.910
 4398W        W11707   6.613   7.395   9.298
 4399W        W11708   6.135   9.319   6.917
 4400W        W11709   3.692   6.458   9.804
 4401W        W11710  14.411   5.496   9.770
 4402W        W11711   5.630   9.295   9.319
 4403W        W11712  12.943   9.777   6.458
 4404W        W11713   6.140   8.344   0.746
 4405W        W11714   4.185   2.190   8.334
 4406W        W11715   6.117   6.915   5.994
 4407W        W11716  12.446   6.454   8.337
 4408W        W11717  19.791   9.784   0.281
 4409W        W11718   1.756   6.912   0.251
 4410W        W11719   3.692   9.796   6.911
 4411W        W11720   0.736   8.373   6.945
 4412W        W11721  16.871   9.306   9.769
 4413W        W11722   3.210   6.914   0.748
 4414W        W11723  14.916   7.423   6.951
 4415W        W11724   1.242   5.995   7.863
 4416W        W11725   9.550   4.534   5.974
 4417W        W11726   0.277   4.550   0.754
 4418W        W11727  11.010   5.975   8.838
 4419W        W11728   5.657   3.107   8.369
 4420W        W11729   8.578   0.249   8.377
 4421W        W11730  13.418   3.579   7.896
 4422W        W11731   8.576   8.823   6.916
 4423W        W11732  17.358   5.499   9.330
 4424W        W11733   7.076   7.896   9.298
 4425W        W11734   4.160   5.001   0.724
 4426W        W11735   9.549   3.592   6.910
 4427W        W11736  11.991   1.711   6.434
 4428W        W11737  14.918   8.828   7.400
 4429W        W11738  15.896   4.547   8.344
 4430W        W11739  17.835   5.995   6.918
 4431W        W11740  16.837   5.984   0.745
 4432W        W11741   0.751   3.114   7.883
 4433W        W11742   4.161   6.471   6.906
 4434W        W11743   6.593   0.715   6.928
 4435W        W11744  18.339   7.899   6.947
 4436W        W11745   2.715   5.008   0.247
 4437W        W11746  10.988   2.153   8.351
 4438W        W11747   9.554   9.328   7.390
 4439W        W11748  13.461   3.099   9.800
 4440W        W11749  10.049   0.279   0.741
 4441W        W11750   8.546   2.159   9.332
 4442W        W11751   8.069   5.494   8.346
 4443W        W11752   8.564   1.193   0.742
 4444W        W11753   7.595   6.474   9.303
 4445W        W11754  13.424   7.893   0.715
 4446W        W11755   2.198   3.579   5.972
 4447W        W11756   2.207   5.038   8.815
 4448W        W11757   0.258   3.120   6.475
 4449W        W11758  10.044   0.723   8.849
 4450W        W11759  19.766   5.018   0.734
 4451W        W11760  15.859   8.819   9.315
 4452W        W11761   0.258   5.022   8.839
 4453W        W11762   8.091   3.138   0.719
 4454W        W11763  11.487   4.530   0.241
 4455W        W11764   5.627   6.923   9.317
 4456W        W11765   9.043   5.506   5.981
 4457W        W11766   3.217   0.251   8.379
 4458W        W11767  15.375   9.311   8.356
 4459W        W11768   7.115   5.491   5.981
 4460W        W11769  18.313   1.685   8.379
 4461W        W11770  11.006   8.360   9.789
 4462W        W11771  11.465   7.888   8.349
 4463W        W11772   9.557   8.835   6.930
 4464W        W11773  15.377   6.924   9.785
 4465W        W11774  13.422   6.462   6.454
 4466W        W11775  19.763   7.880   7.392
 4467W        W11776   5.653   4.085   0.273
 4468W        W11777   6.099   8.835   6.937
 4469W        W11778   9.551   4.566   5.504
 4470W        W11779   7.577   8.833   6.945
 4471W        W11780  19.285   5.016   6.475
 4472W        W11781  10.513   0.263   6.944
 4473W        W11782  12.936   7.872   6.465
 4474W        W11783   3.220   5.996   9.798
 4475W        W11784   7.114   0.726   7.389
 4476W        W11785   5.653   8.373   9.779
 4477W        W11786  19.786   1.697   8.339
 4478W        W11787   1.264   7.860   7.880
 4479W        W11788  15.380   1.685   7.403
 4480W        W11789  11.958   5.015   0.723
 4481W        W11790  18.803   5.523   0.751
 4482W        W11791  16.861   1.194   6.946
 4483W        W11792  17.339   6.925   0.745
 4484W        W11793   2.227   9.298   0.743
 4485W        W11794  10.492   6.948   0.243
 4486W        W11795   5.625   6.918   0.724
 4487W        W11796  10.999   0.758   0.735
 4488W        W11797   2.207   4.051   7.423
 4489W        W11798   6.107   6.433   7.415
 4490W        W11799  18.798   0.756   9.801
 4491W        W11800  11.954   0.241   8.367
 4492W        W11801   0.245   0.243   7.867
 4493W        W11802  19.805   1.211   6.936
 4494W        W11803   1.234   9.805   6.436
 4495W        W11804   3.684   6.940   7.386
 4496W        W11805   3.700   9.783   0.240
 4497W        W11806  14.438   0.274   7.404
 4498W        W11807   5.636   0.753   9.764
 4499W        W11808  10.041   3.098   8.357
 4500W        W11809   3.185   8.366   8.814
 4501W        W11810   7.600   7.401   0.248
 4502W        W11811   3.681   2.666   9.318
 4503W        W11812   6.129   3.112   9.301
 4504W        W11813  15.370   9.774   0.259
 4505W        W11814   2.710   6.951   9.303
 4506W        W11815   2.231   1.231   6.467
 4507W        W11816   5.127   7.876   0.283
 4508W        W11817  10.510   6.925   9.790
 4509W        W11818   1.222   6.938   1.193
 4510W        W11819   7.102   3.117   7.412
 4511W        W11820   2.695   6.460   8.345
 4512W        W11821  16.842   0.239   0.240
 4513W        W11822   6.127   9.783   7.886
 4514W        W11823  19.764   4.549   7.903
 4515W        W11824   1.243   2.653   0.751
 4516W        W11825  18.302   0.258   9.781
 4517W        W11826   9.541   5.961   8.339
 4518W        W11827  18.334   5.012   8.338
 4519W        W11828  12.955   3.603   6.433
 4520W        W11829   6.587   0.240   9.302
 4521W        W11830   6.128   7.387   8.817
 4522W        W11831  10.044   1.193   8.361
 4523W        W11832  10.024   2.150   9.320
 4524W        W11833   4.653   6.472   1.206
 4525W        W11834   0.740   5.955   5.971
 4526W        W11835  16.388   6.443   8.851
 4527W        W11836  13.432   3.573   7.425
 4528W        W11837  11.502   8.350   0.253
 4529W        W11838  18.782   9.780   8.341
 4530W        W11839  14.906   5.046   0.759
 4531W        W11840   5.623   6.441   0.716
 4532W        W11841  11.492   3.617   8.371
 4533W        W11842  17.839   6.918   6.909
 4534W        W11843   8.568   0.751   7.427
 4535W        W11844   2.720   1.219   6.935
 4536W        W11845  19.295   3.114   8.814
 4537W        W11846  14.887   6.921   7.398
 4538W        W11847   8.095   8.833   8.834
 4539W        W11848  16.833   9.324   8.378
 4540W        W11849   3.185   7.867   9.330
 4541W        W11850   6.608   7.402   6.947
 4542W        W11851  17.834   5.485   9.805
 4543W        W11852  10.006   7.895   0.283
 4544W        W11853  11.482   4.070   6.466
 4545W        W11854  19.313   7.403   8.369
 4546W        W11855   4.659   0.726   7.898
 4547W        W11856   3.219   0.719   8.363
 4548W        W11857  13.456   2.173   7.383
 4549W        W11858  19.781   4.060   7.411
 4550W        W11859   9.522   7.399   8.817
 4551W        W11860  10.045   8.369   8.336
 4552W        W11861  11.970   6.925   0.257
 4553W        W11862  12.937   9.305   6.926
 4554W        W11863   5.169   7.864   6.450
 4555W        W11864   6.600   7.883   0.277
 4556W        W11865  16.854   5.522   6.476
 4557W        W11866   8.537   0.757   7.884
 4558W        W11867   3.194   5.521   0.284
 4559W        W11868   2.688   1.216   0.259
 4560W        W11869  15.886   5.500   8.354
 4561W        W11870  17.812   1.203   7.900
 4562W        W11871  10.509   2.637   7.862
 4563W        W11872   8.550   6.936   9.306
 4564W        W11873   8.051   5.973   5.989
 4565W        W11874   7.075   2.660   8.851
 4566W        W11875  19.792   3.140   5.997
 4567W        W11876  13.928   7.385   5.965
 4568W        W11877  13.444   3.608   9.767
 4569W        W11878  11.509   7.873   8.830
 4570W        W11879  10.014   6.000   9.807
 4571W        W11880   5.154   7.423   0.716
 4572W        W11881  16.377   3.139   8.351
 4573W        W11882  15.374   2.630   0.728
 4574W        W11883   9.054   8.341   5.991
 4575W        W11884   0.745   1.703   6.926
 4576W        W11885  12.973   0.759   6.910
 4577W        W11886  11.467   9.806   8.338
 4578W        W11887   5.621   2.181   0.740
 4579W        W11888  17.329   7.421   0.256
 4580W        W11889   8.089   2.165   5.978
 4581W        W11890   1.729   5.036   6.925
 4582W        W11891   2.234   1.693   7.421
 4583W        W11892  16.343   6.943   7.404
 4584W        W11893   0.759   0.252   1.197
 4585W        W11894   9.523   5.495   0.243
 4586W        W11895  15.854   5.988   6.455
 4587W        W11896   1.743   8.365   0.271
 4588W        W11897  10.025   2.177   9.785
 4589W        W11898   3.178   4.557   0.244
 4590W        W11899   2.200   4.527   6.931
 4591W        W11900  15.873   5.029   6.453
 4592W        W11901   0.733   1.231   5.956
 4593W        W11902   4.672   5.983   9.785
 4594W        W11903   9.534   0.258   7.424
 4595W        W11904   8.079   1.677   0.760
 4596W        W11905   1.719   0.744   6.908
 4597W        W11906   9.047   1.709   6.444
 4598W        W11907  16.872   9.290   6.449
 4599W        W11908  16.371   4.067   9.799
 4600W        W11909  14.882   4.077   8.855
 4601W        W11910  12.968   4.535   0.746
 4602W        W11911  11.484   2.168   8.857
 4603W        W11912  10.979   7.904   8.377
 4604W        W11913   0.764   7.866   9.324
 4605W        W11914  16.874   1.694   6.429
 4606W        W11915   3.697   5.022   0.273
 4607W        W11916  12.953   3.572   6.942
 4608W        W11917  13.416   5.511   8.817
 4609W        W11918  14.391   8.837   9.297
 4610W        W11919   0.274   0.735   7.878
 4611W        W11920   1.755   7.870   7.882
 4612W        W11921  11.486   2.639   6.929
 4613W        W11922   3.660   7.408   7.416
 4614W        W11923  10.000   0.740   9.306
 4615W        W11924   8.082   1.201   7.869
 4616W        W11925   3.195   5.999   6.934
 4617W        W11926   5.615   2.171   8.377
 4618W        W11927   9.538   9.316   9.288
 4619W        W11928  14.909   3.131   9.319
 4620W        W11929  16.379   8.379   0.751
 4621W        W11930   9.070   0.760   6.949
 4622W        W11931  10.513   2.661   8.853
 4623W        W11932   5.630   1.682   6.951
 4624W        W11933  16.848   5.996   8.377
 4625W        W11934  14.416   6.940   0.286
 4626W        W11935  11.471   4.553   6.930
 4627W        W11936   8.553   7.412   7.860
 4628W        W11937   3.192   1.211   7.420
 4629W        W11938  14.902   2.638   0.277
 4630W        W11939   3.675   5.043   7.898
 4631W        W11940  16.859   5.488   6.942
 4632W        W11941  11.472   7.899   7.400
 4633W        W11942   8.559   8.856   8.811
 4634W        W11943   9.051   4.535   0.250
 4635W        W11944   3.688   4.558   9.321
 4636W        W11945   1.265   0.275   8.840
 4637W        W11946  17.331   8.336   7.886
 4638W        W11947   5.616   9.320   7.391
 4639W        W11948   6.620   4.540   6.917
 4640W        W11949   8.057   5.014   7.889
 4641W        W11950   6.144   8.835   8.810
 4642W        W11951   7.086   6.944   0.249
 4643W        W11952   5.610   1.693   6.445
 4644W        W11953   0.747   1.688   7.860
 4645W        W11954  10.979   1.694   8.815
 4646W        W11955  17.814   0.247   7.395
 4647W        W11956  14.414   5.019   8.821
 4648W        W11957   6.624   9.293   9.300
 4649W        W11958   6.621   4.072   0.760
 4650W        W11959   5.147   3.592   7.421
 4651W        W11960  14.430   5.518   8.843
 4652W        W11961  12.454   0.759   5.962
 4653W        W11962   6.596   2.151   0.737
 4654W        W11963  17.835   5.514   6.451
 4655W        W11964  17.826   1.694   0.284
 4656W        W11965   1.740   6.916   6.447
 4657W        W11966   8.551   4.528   8.380
 4658W        W11967  15.890   6.920   8.365
 4659W        W11968  10.493   5.047   6.440
 4660W        W11969   6.127   1.233   8.345
 4661W        W11970   4.659   5.009   8.353
 4662W        W11971  14.904   4.538   9.800
 4663W        W11972  15.384   4.542   0.268
 4664W        W11973  11.015   5.044   9.332
 4665W        W11974   8.578   8.836   7.882
 4666W        W11975   4.172   5.026   8.841
 4667W        W11976  10.006   9.314   0.280
 4668W        W11977  11.998   5.494   5.966
 4669W        W11978   9.048   3.594   8.844
 4670W        W11979  10.498   2.162   5.954
 4671W        W11980   6.606   5.986   9.305
 4672W        W11981   7.104   5.027   5.996
 4673W        W11982  13.921   2.659   9.779
 4674W        W11983   3.187   6.910   9.332
 4675W        W11984   5.649   3.594   0.257
 4676W        W11985  12.936   4.089   6.919
 4677W        W11986  15.386   0.253   8.347
 4678W        W11987  12.481   5.988   7.865
 4679W        W11988  12.953   9.326   8.853
 4680W        W11989   9.545   6.434   9.769
 4681W        W11990  13.431   5.519   0.733
 4682W        W11991   4.642   3.610   0.280
 4683W        W11992   1.744   5.514   8.349
 4684W        W11993  16.866   6.912   9.790
 4685W        W11994   8.578   7.884   8.335
 4686W        W11995  16.378   1.711   0.725
 4687W        W11996  10.007   1.201   9.806
 4688W        W11997  12.948   8.370   6.932
 4689W        W11998  10.030   9.328   8.377
 4690W        W11999   4.160   9.792   7.421
 4691W        W12000  12.968   3.103   0.749
 4692W        W12001  15.860   0.249   8.362
 4693W        W12002   8.559   4.552   9.772
 4694W        W12003   9.557   7.400   8.372
 4695W        W12004   1.749   7.382   8.829
 4696W        W12005  15.877   4.086   9.779
 4697W        W12006   4.662   6.468   9.304
 4698W        W12007  10.984   3.588   7.873
 4699W        W12008   3.184   0.280   0.740
 4700W        W12009   9.533   5.012   5.997
 4701W        W12010  19.291   1.699   7.425
 4702W        W12011   9.526   7.870   9.305
 4703W        W12012  17.846   0.740   9.291
 4704W        W12013  12.473   0.245   6.452
 4705W        W12014  18.824   5.008   6.450
 4706W        W12015  12.474   3.121   9.808
 4707W        W12016  12.933   3.591   8.811
 4708W        W12017  13.903   3.579   8.372
 4709W        W12018  18.304   2.160   9.785
 4710W        W12019  12.957   7.401   9.781
 4711W        W12020   8.064   5.030   0.720
 4712W        W12021  18.813   5.500   9.298
 4713W        W12022  14.894   9.320   0.722
 4714W        W12023  17.817   7.877   0.269
 4715W        W12024  17.826   3.588   9.324
 4716W        W12025  14.391   3.140   7.402
 4717W        W12026  17.326   2.185   9.289
 4718W        W12027  15.898   3.101   6.936
 4719W        W12028  17.343   9.765   9.298
 4720W        W12029   3.176   8.822   5.968
 4721W        W12030   9.551   8.333   8.358
 4722W        W12031  11.975   8.343   7.860
 4723W        W12032   9.050   3.120   8.855
 4724W        W12033   2.714   3.594   8.812
 4725W        W12034   0.777   2.173   0.724
 4726W        W12035   7.119   9.768   9.801
 4727W        W12036   2.694   4.535   6.949
 4728W        W12037   0.757   1.675   9.295
 4729W        W12038   1.254   2.163   8.848
 4730W        W12039  17.360   1.699   7.417
 4731W        W12040  10.988   5.993   9.326
 4732W        W12041   1.733   4.057   8.347
 4733W        W12042   9.539   6.913   0.261
 4734W        W12043  17.822   8.831   0.744
 4735W        W12044  17.334   6.948   9.294
 4736W        W12045   1.267   6.442   0.257
 4737W        W12046  11.022   5.015   9.801
 4738W        W12047  16.384   0.285   7.870
 4739W        W12048  11.011   8.339   8.356
 4740W        W12049   0.761   3.595   9.286
 4741W        W12050  19.289   4.067   9.784
 4742W        W12051  17.321   1.687   8.849
 4743W        W12052   2.242   6.453   9.770
 4744W        W12053  11.017   4.049   7.890
 4745W        W12054  14.879   0.272   7.411
 4746W        W12055  15.889   8.354   6.460
 4747W        W12056  19.315   2.661   6.431
 4748W        W12057   1.247   7.890   0.281
 4749W        W12058  19.774   9.326   0.738
 4750W        W12059   2.219   9.781   9.316
 4751W        W12060   2.199   3.136   9.301
 4752W        W12061   8.065   6.462   0.273
 4753W        W12062  14.431   6.914   8.824
 4754W        W12063  13.904   0.723   9.314
 4755W        W12064   0.771   8.348   8.850
 4756W        W12065  16.829   9.286   0.273
 4757W        W12066   7.592   8.338   0.731
 4758W        W12067   1.718   6.936   7.395
 4759W        W12068  15.400   3.602   0.742
 4760W        W12069  11.489   7.394   0.744
 4761W        W12070   0.773   2.632   5.953
 4762W        W12071  15.404   3.112   6.442
 4763W        W12072   2.695   7.384   7.879
 4764W        W12073  10.507   5.036   0.262
 4765W        W12074   9.546   0.278   8.811
 4766W        W12075  19.762   2.624   8.810
 4767W        W12076   3.189   7.886   8.844
 4768W        W12077   9.523   7.895   0.259
 4769W        W12078   5.141   9.793   7.397
 4770W        W12079   6.627   5.505   5.981
 4771W        W12080   7.075   1.694   0.719
 4772W        W12081  14.903   4.529   8.350
 4773W        W12082   4.662   0.280   8.839
 4774W        W12083  18.814   1.689   6.917
 4775W        W12084  16.875   1.208   6.430
 4776W        W12085   8.076   4.049   7.413
 4777W        W12086   0.742   7.389   6.473
 4778W        W12087  17.814   8.838   0.262
 4779W        W12088  19.790   7.903   0.745
 4780W        W12089   4.180   1.705   6.920
 4781W        W12090   5.656   5.522   7.386
 4782W        W12091   7.096   5.518   6.945
 4783W        W12092   5.628   2.648   7.419
 4784W        W12093  11.955   4.093   6.433
 4785W        W12094  14.903   8.849   0.725
 4786W        W12095   8.051   6.941   7.861
 4787W        W12096   0.736   5.961   7.424
 4788W        W12097   3.695   3.597   8.367
 4789W        W12098   9.036   0.735   9.763
 4790W        W12099  12.939   9.795   7.408
 4791W        W12100  13.462   7.425   0.238
 4792W        W12101  18.336   7.385   9.286
 4793W        W12102  10.515   4.057   8.369
 4794W        W12103  12.929   1.235   7.409
 4795W        W12104  19.789   1.195   6.462
 4796W        W12105  14.895   5.516   8.844
 4797W        W12106  14.435   9.764   9.772
 4798W        W12107  13.944   4.544   7.407
 4799W        W12108   3.696   3.099   0.735
 4800W        W12109   0.259   0.747   8.370
 4801W        W12110  11.984   9.291   8.364
 4802W        W12111  10.021   9.763   9.800
 4803W        W12112   0.284   6.473   7.398
 4804W        W12113   7.582   3.618   8.848
 4805W        W12114  11.964   6.435   9.320
 4806W        W12115  19.291   5.975   0.283
 4807W        W12116   5.614   5.957   6.429
 4808W        W12117  18.296   7.897   8.816
 4809W        W12118   2.196   8.355   9.794
 4810W        W12119   6.129   2.661   7.862
 4811W        W12120   4.188   9.303   5.967
 4812W        W12121  15.887   7.413   9.802
 4813W        W12122   2.721   2.177   8.365
 4814W        W12123  16.854   2.155   7.901
 4815W        W12124  11.486   3.127   8.815
 4816W        W12125  19.298   4.079   6.433
 4817W        W12126   5.627   9.289   8.851
 4818W        W12127   9.519   0.241   5.959
 4819W        W12128   5.141   6.456   0.250
 4820W        W12129   1.229   1.200   6.433
 4821W        W12130  16.845   9.314   5.958
 4822W        W12131   6.122   5.023   7.890
 4823W        W12132  18.786   8.843   7.885
 4824W        W12133  19.787   5.953   5.978
 4825W        W12134   3.196   4.543   9.806
 4826W        W12135   3.209   9.770   0.751
 4827W        W12136   7.075   3.605   8.359
 4828W        W12137   7.579   9.300   6.447
 4829W        W12138   8.585   8.346   6.942
 4830W        W12139  18.801   5.971   7.388
 4831W        W12140   9.055   7.405   8.367
 4832W        W12141  10.988   2.666   8.360
 4833W        W12142   0.747   3.134   9.293
 4834W        W12143   2.229   6.000   9.797
 4835W        W12144   4.153   0.254   7.427
 4836W        W12145  19.286   5.968   5.997
 4837W        W12146  17.325   4.558   8.338
 4838W        W12147   2.689   8.854   0.251
 4839W        W12148   9.037   7.883   9.802
 4840W        W12149  12.458   8.355   8.816
 4841W        W12150  18.818   5.961   9.803
 4842W        W12151  16.839   1.224   0.738
 4843W        W12152  10.528   6.437   9.793
 4844W        W12153  11.990   8.843   0.242
 4845W        W12154   2.205   0.284   9.307
 4846W        W12155  14.391   1.196   0.240
 4847W        W12156  18.800   9.333   0.244
 4848W        W12157   1.723   3.114   0.282
 4849W        W12158  14.398   9.766   0.258
 4850W        W12159  14.411   4.556   6.948
 4851W        W12160   4.677   5.010   6.452
 4852W        W12161  12.452   5.040   0.259
 4853W        W12162  12.967   1.701   7.904
 4854W        W12163   7.577   6.936   9.768
 4855W        W12164  13.913   2.185   0.737
 4856W        W12165   6.129   3.618   9.781
 4857W        W12166   4.682   5.518   9.790
 4858W        W12167   3.668   6.429   6.462
 4859W        W12168   2.685   1.705   7.414
 4860W        W12169   7.582   2.146   5.985
 4861W        W12170  15.873   5.477   7.876
 4862W        W12171  19.761   7.875   7.886
 4863W        W12172  11.971   2.156   9.302
 4864W        W12173   2.712   1.224   7.859
 4865W        W12174  19.317   9.293   0.271
 4866W        W12175  10.499   8.337   8.840
 4867W        W12176   8.544   0.746   0.259
 4868W        W12177   0.746   2.170   8.839
 4869W        W12178  18.296   0.240   7.407
 4870W        W12179   1.253   5.036   0.757
 4871W        W12180   3.663   7.896   8.828
 4872W        W12181  18.791   2.624   0.252
 4873W        W12182   9.034   9.802   7.879
 4874W        W12183   7.113   7.401   8.364
 4875W        W12184  10.990   2.174   6.930
 4876W        W12185   2.705   3.137   7.872
 4877W        W12186  19.794   5.962   6.916
 4878W        W12187   4.165   5.505   0.750
 4879W        W12188  19.310   7.898   6.449
 4880W        W12189  16.369   5.966   9.799
 4881W        W12190   9.527   6.911   6.469
 4882W        W12191  16.385   5.008   9.794
 4883W        W12192  10.029   5.013   7.391
 4884W        W12193   7.574   9.790   6.460
 4885W        W12194   8.554   3.133   9.314
 4886W        W12195  19.297   5.961   8.815
 4887W        W12196  18.302   4.551   7.876
 4888W        W12197   3.188   8.830   9.301
 4889W        W12198  16.365   4.571   6.469
 4890W        W12199   8.557   9.322   5.957
 4891W        W12200  15.868   8.349   7.418
 4892W        W12201  13.450   2.156   9.783
 4893W        W12202   7.110   6.948   7.902
 4894W        W12203  12.950   5.976   9.782
 4895W        W12204  17.830   1.195   9.809
 4896W        W12205  10.015   4.527   9.311
 4897W        W12206  18.307   2.624   0.252
 4898W        W12207   0.766   6.921   7.386
 4899W        W12208  15.413   6.933   7.424
 4900W        W12209  11.478   5.039   6.439
 4901W        W12210  11.962   6.920   0.726
 4902W        W12211  10.998   1.684   9.327
 4903W        W12212  18.325   1.684   0.718
 4904W        W12213   4.667   2.648   7.395
 4905W        W12214  11.961   2.620   8.334
 4906W        W12215  13.457   7.412   9.314
 4907W        W12216   1.746   2.145   9.310
 4908W        W12217   0.282   6.454   8.356
 4909W        W12218  16.386   1.680   6.473
 4910W        W12219  17.321   5.964   6.926
 4911W        W12220  16.372   5.513   8.827
 4912W        W12221  10.498   9.287   9.789
 4913W        W12222   3.216   3.113   9.327
 4914W        W12223  10.499   6.460   9.313
 4915W        W12224   4.646   5.495   0.758
 4916W        W12225   4.155   4.048   0.719
 4917W        W12226   3.685   4.569   9.766
 4918W        W12227   8.052   5.502   7.400
 4919W        W12228  15.369   9.331   7.411
 4920W        W12229   7.586   9.789   8.348
 4921W        W12230   7.111   7.413   7.405
 4922W        W12231  12.443   6.458   0.726
 4923W        W12232   4.641   9.294   0.761
 4924W        W12233  13.448   5.506   8.344
 4925W        W12234   9.051   3.599   7.874
 4926W        W12235  16.349   4.076   8.820
 4927W        W12236   9.034   5.044   9.793
 4928W        W12237   1.753   6.443   6.930
 4929W        W12238   9.058   8.846   8.380
 4930W        W12239  11.504   3.113   8.352
 4931W        W12240  10.048   1.704   9.781
 4932W        W12241  19.308   5.993   6.466
 4933W        W12242   0.744   2.639   8.366
 4934W        W12243   6.127   5.502   7.895
 4935W        W12244  16.382   8.830   6.465
 4936W        W12245  18.313   6.453   0.759
 4937W        W12246  16.350   7.899   8.832
 4938W        W12247  15.862   1.226   0.748
 4939W        W12248   5.165   8.857   8.831
 4940W        W12249  10.519   5.519   9.795
 4941W        W12250  16.869   7.413   9.295
 4942W        W12251   1.225   2.631   6.473
 4943W        W12252   5.150   9.306   6.462
 4944W        W12253  14.425   9.321   9.766
 4945W        W12254  11.508   8.810   6.930
 4946W        W12255   1.220   5.993   9.783
 4947W        W12256  14.902   5.496   9.302
 4948W        W12257  19.773   7.904   0.285
 4949W        W12258  11.497   6.450   9.321
 4950W        W12259  16.378   5.507   8.336
 4951W        W12260  15.879   1.708   6.471
 4952W        W12261   6.599   4.568   0.756
 4953W        W12262   9.034   5.021   6.906
 4954W        W12263   2.726   2.144   9.323
 4955W        W12264   2.241   7.885   6.914
 4956W        W12265  14.428   2.156   9.798
 4957W        W12266  13.939   5.991   7.901
 4958W        W12267  10.993   4.075   9.327
 4959W        W12268   7.085   2.641   6.460
 4960W        W12269  16.356   1.677   7.389
 4961W        W12270   8.072   2.653   0.239
 4962W        W12271  17.335   0.720   5.961
 4963W        W12272   6.621   3.616   7.889
 4964W        W12273   6.118   8.374   8.853
 4965W        W12274   2.685   0.727   9.799
 4966W        W12275  14.424   6.446   0.714
 4967W        W12276  11.953   2.183   0.267
 4968W        W12277  18.794   2.168   0.739
 4969W        W12278  14.412   4.552   7.872
 4970W        W12279   8.542   9.770   6.454
 4971W        W12280  17.852   5.979   9.803
 4972W        W12281   8.538   7.390   8.354
 4973W        W12282  11.498   3.589   8.857
 4974W        W12283   2.209   9.765   8.371
 4975W        W12284   3.184   5.005   8.357
 4976W        W12285   7.107   4.053   0.735
 4977W        W12286   2.714   7.399   8.343
 4978W        W12287   9.040   2.174   6.434
 4979W        W12288  16.868   8.822   8.372
 4980W        W12289  18.828   3.134   7.876
 4981W        W12290  10.502   4.094   8.817
 4982W        W12291   1.721   8.358   8.368
 4983W        W12292   3.193   2.185   0.249
 4984W        W12293   4.662   6.909   5.958
 4985W        W12294  13.923   1.224   5.962
 4986W        W12295  11.503   5.482   6.935
 4987W        W12296   9.046   0.268   5.968
 4988W        W12297   3.661   7.389   6.458
 4989W        W12298  14.401   0.739   6.447
 4990W        W12299  10.509   0.257   7.890
 4991W        W12300  11.021   1.672   6.931
 4992W        W12301  10.022   4.555   7.395
 4993W        W12302  17.343   8.342   6.437
 4994W        W12303  10.007   2.177   0.281
 4995W        W12304   1.731   2.177   6.922
 4996W        W12305  15.391   2.623   8.372
 4997W        W12306   0.741   8.824   0.722
 4998W        W12307  18.823   7.900   6.457
 4999W        W12308  10.998   2.632   8.827
 5000W        W12309   0.252   5.040   0.730
 5001W        W12310  13.448   5.506   6.951
 5002W        W12311   5.642   0.737   9.298
 5003W        W12312   5.641   5.972   0.734
 5004W        W12313  15.861   3.572   8.843
 5005W        W12314  14.408   1.228   9.303
 5006W        W12315  15.404   2.171   8.336
 5007W        W12316  11.023   2.157   7.424
 5008W        W12317  19.287   7.414   7.400
 5009W        W12318  19.769   8.833   7.384
 5010W        W12319  14.438   9.307   6.952
 5011W        W12320   8.067   2.148   9.802
 5012W        W12321   9.532   2.184   6.923
 5013W        W12322   7.568   6.940   8.820
 5014W        W12323  19.772   6.459   9.288
 5015W        W12324  10.536   9.295   6.931
 5016W        W12325   1.732   2.634   8.844
 5017W        W12326   8.565   0.257   8.841
 5018W        W12327  10.497   6.950   6.916
 5019W        W12328   0.286   9.792   6.471
 5020W        W12329   0.271   5.976   8.369
 5021W        W12330   5.617   0.268   7.389
 5022W        W12331   8.096   5.997   9.809
 5023W        W12332  15.372   5.043   0.743
 5024W        W12333  14.407   0.738   0.756
 5025W        W12334   8.075   8.346   6.929
 5026W        W12335  11.476   8.829   5.983
 5027W        W12336  15.877   3.595   8.334
 5028W        W12337  16.853   5.017   6.440
 5029W        W12338   4.194   1.683   7.388
 5030W        W12339  18.807   0.249   6.467
 5031W        W12340   0.763   5.959   9.763
 5032W        W12341   8.062   7.424   9.767
 5033W        W12342  14.878   7.411   8.851
 5034W        W12343  10.505   2.658   8.357
 5035W        W12344  15.374   2.630   9.790
 5036W        W12345  14.889   3.116   6.461
 5037W        W12346   9.556   3.096   7.873
 5038W        W12347   3.216   4.531   6.917
 5039W        W12348  14.879   9.769   8.813
 5040W        W12349   8.566   5.023   6.945
 5041W        W12350  11.503   6.452   0.757
 5042W        W12351  19.789   2.643   6.910
 5043W        W12352   6.129   2.180   9.298
 5044W        W12353   3.186   5.970   0.272
 5045W        W12354  11.979   1.686   8.838
 5046W        W12355  16.365   4.564   8.837
 5047W        W12356   2.231   4.060   9.769
 5048W        W12357   3.659   1.696   7.871
 5049W        W12358   4.170   8.854   8.838
 5050W        W12359  10.004   5.997   8.350
 5051W        W12360  13.422   5.972   6.943
 5052W        W12361  13.449   6.911   0.275
 5053W        W12362   5.632   5.984   8.849
 5054W        W12363  17.822   8.852   8.337
 5055W        W12364   7.096   4.058   8.853
 5056W        W12365   3.210   7.386   8.368
 5057W        W12366   2.222   5.491   0.739
 5058W        W12367  12.462   4.564   1.227
 5059W        W12368  16.853   1.671   8.838
 5060W        W12369   8.585   8.846   0.276
 5061W        W12370   6.616   3.096   8.335
 5062W        W12371  16.851   3.097   6.931
 5063W        W12372  18.811   9.308   7.394
 5064W        W12373   9.065   6.476   9.322
 5065W        W12374  14.923   8.358   9.329
 5066W        W12375  12.474   2.184   8.822
 5067W        W12376  14.394   7.861   6.433
 5068W        W12377   9.056   0.283   8.834
 5069W        W12378   1.715   1.692   7.427
 5070W        W12379   3.206   5.018   6.457
 5071W        W12380   9.549   5.036   0.714
 5072W        W12381   2.230   7.900   9.306
 5073W        W12382   4.665   9.765   7.381
 5074W        W12383  19.784   6.907   9.333
 5075W        W12384   7.584   8.820   0.723
 5076W        W12385   3.203   5.974   6.448
 5077W        W12386  18.805   5.040   0.277
 5078W        W12387  10.002   3.108   7.408
 5079W        W12388   6.106   0.278   8.342
 5080W        W12389   9.073   5.982   0.286
 5081W        W12390  11.012   8.825   9.798
 5082W        W12391  10.019   1.671   8.822
 5083W        W12392  15.879   7.893   8.356
 5084W        W12393  17.824   0.280   8.847
 5085W        W12394  17.838   3.581   0.253
 5086W        W12395  15.863   0.758   7.401
 5087W        W12396  16.857   9.771   9.796
 5088W        W12397  13.418   7.888   9.801
 5089W        W12398   8.585   2.645   0.738
 5090W        W12399   2.701   9.795   0.716
 5091W        W12400   0.291   3.597   8.347
 5092W        W12401  14.397   6.434   6.437
 5093W        W12402   6.134   2.660   8.365
 5094W        W12403   0.749   6.473   9.765
 5095W        W12404  15.411   4.087   8.812
 5096W        W12405  15.886   9.318   0.724
 5097W        W12406   0.287   1.195   7.867
 5098W        W12407  12.463   7.892   9.331
 5099W        W12408   7.585   9.298   0.751
 5100W        W12409  19.297   8.356   0.264
 5101W        W12410   3.660   6.913   9.790
 5102W        W12411   7.572   7.892   9.805
 5103W        W12412   6.618   5.023   7.862
 5104W        W12413   5.132   3.100   8.360
 5105W        W12414  14.421   7.903   0.751
 5106W        W12415   8.091   2.653   7.412
 5107W        W12416  16.832   7.858   0.262
 5108W        W12417  10.045   1.694   0.267
 5109W        W12418  10.528   2.650   6.459
 5110W        W12419   6.611   7.870   7.873
 5111W        W12420   1.756   5.045   6.000
 5112W        W12421  11.971   8.334   8.359
 5113W        W12422   8.086   6.947   7.398
 5114W        W12423   7.091   4.541   7.399
 5115W        W12424   8.075   6.933   9.785
 5116W        W12425  14.879   1.683   7.875
 5117W        W12426  12.928   7.893   7.396
 5118W        W12427  11.967   3.132   7.877
 5119W        W12428   6.105   4.538   6.447
 5120W        W12429   2.686   9.792   7.421
 5121W        W12430   0.747   5.520   0.278
 5122W        W12431  14.410   4.530   5.956
 5123W        W12432   8.097   0.761   9.775
 5124W        W12433   6.131   4.090   6.448
 5125W        W12434  19.293   3.574   9.796
 5126W        W12435   0.746   3.123   7.399
 5127W        W12436  10.990   5.521   6.443
 5128W        W12437   0.264   3.593   7.878
 5129W        W12438   5.125   4.089   8.826
 5130W        W12439  14.409   5.518   6.441
 5131W        W12440   6.120   5.484   0.262
 5132W        W12441  10.988   9.293   6.913
 5133W        W12442  15.379   4.530   0.744
 5134W        W12443  16.837   3.599   6.456
 5135W        W12444   1.228   4.566   9.763
 5136W        W12445  19.305   8.348   8.340
 5137W        W12446  16.365   1.200   6.916
 5138W        W12447  16.350   3.124   7.390
 5139W        W12448   4.166   4.559   7.871
 5140W        W12449   1.710   9.804   6.431
 5141W        W12450   9.058   6.917   9.767
 5142W        W12451   4.164   8.857   0.240
 5143W        W12452  17.335   4.533   7.407
 5144W        W12453   0.245   1.698   9.288
 5145W        W12454   9.557   1.235   6.939
 5146W        W12455  10.038   6.934   9.774
 5147W        W12456   9.055   1.677   5.990
 5148W        W12457  15.395   5.490   0.250
 5149W        W12458   9.069   5.963   9.292
 5150W        W12459  11.509   4.063   9.776
 5151W        W12460   9.062   9.791   9.765
 5152W        W12461  14.904   3.605   6.932
 5153W        W12462   0.246   3.607   0.734
 5154W        W12463  16.867   8.363   9.787
 5155W        W12464  15.370   9.321   9.783
 5156W        W12465   1.711   8.348   9.766
 5157W        W12466   4.151   9.292   0.239
 5158W        W12467  19.307   9.301   9.793
 5159W        W12468   6.618   7.898   0.719
 5160W        W12469   5.627   0.255   7.900
 5161W        W12470   0.248   5.031   7.862
 5162W        W12471  12.441   1.213   0.753
 5163W        W12472  15.885   1.217   6.929
 5164W        W12473   7.572   4.060   9.805
 5165W        W12474  18.312   0.260   0.248
 5166W        W12475  13.929   6.917   0.277
 5167W        W12476   7.104   2.637   0.246
 5168W        W12477  13.933   5.487   9.793
 5169W        W12478  16.383   9.323   8.823
 5170W        W12479   9.519   8.371   6.453
 5171W        W12480  10.977   5.486   9.800
 5172W        W12481   8.581   9.771   0.747
 5173W        W12482   2.225   0.749   0.729
 5174W        W12483   7.571   8.376   7.870
 5175W        W12484   3.196   9.771   9.329
 5176W        W12485  16.377   3.597   7.892
 5177W        W12486  18.816   1.195   7.868
 5178W        W12487   1.250   6.916   0.260
 5179W        W12488   3.689   8.354   7.404
 5180W        W12489   1.726   2.647   7.381
 5181W        W12490   1.728   8.849   7.898
 5182W        W12491  10.981   7.864   8.819
 5183W        W12492   5.148   6.925   0.252
 5184W        W12493  12.463   6.931   0.254
 5185W        W12494   6.607   6.439   7.411
 5186W        W12495  13.451   4.534   7.428
 5187W        W12496   3.190   6.468   0.741
 5188W        W12497   0.748   0.753   9.311
 5189W        W12498   8.073   9.300   7.423
 5190W        W12499  16.873   0.761   5.961
 5191W        W12500  13.936   6.440   0.265
 5192W        W12501  18.798   1.699   6.433
 5193W        W12502   2.724   5.989   7.428
 5194W        W12503   3.191   9.780   7.415
 5195W        W12504  17.351   4.540   6.453
 5196W        W12505  19.315   9.805   6.926
 5197W        W12506  17.332   4.526   0.723
 5198W        W12507   6.142   9.333   8.844
 5199W        W12508   3.706   1.199   0.286
 5200W        W12509  12.938   3.134   8.825
 5201W        W12510  19.294   0.262   8.348
 5202W        W12511  12.441   1.210   7.881
 5203W        W12512   8.577   5.029   9.300
 5204W        W12513  15.407   8.837   7.423
 5205W        W12514  15.375   8.843   6.466
 5206W        W12515   5.657   3.577   9.305
 5207W        W12516   3.214   4.061   9.297
 5208W        W12517   1.713   7.410   9.763
 5209W        W12518  15.381   1.679   7.897
 5210W        W12519  10.009   1.194   8.847
 5211W        W12520   2.202   8.351   8.358
 5212W        W12521   7.085   7.868   7.878
 5213W        W12522  16.853   4.053   7.409
 5214W        W12523   6.114   0.734   6.909
 5215W        W12524  14.432   2.174   7.401
 5216W        W12525  14.887   6.910   8.852
 5217W        W12526   7.577   5.957   0.728
 5218W        W12527   9.542   3.593   0.266
 5219W        W12528  11.965   6.467   0.723
 5220W        W12529  16.378   9.306   6.435
 5221W        W12530   7.115   5.496   9.789
 5222W        W12531   5.647   2.636   0.719
 5223W        W12532  17.837   0.259   6.908
 5224W        W12533  11.978   2.190   7.409
 5225W        W12534   9.552   9.304   0.723
 5226W        W12535   8.553   1.688   8.347
 5227W        W12536  14.427   5.014   0.269
 5228W        W12537   9.514   7.904   6.923
 5229W        W12538  10.025   3.586   6.475
 5230W        W12539   0.749   0.279   9.797
 5231W        W12540   9.552   5.992   9.318
 5232W        W12541  15.861   6.921   6.462
 5233W        W12542  10.028   8.825   0.280
 5234W        W12543   1.246   0.735   8.353
 5235W        W12544  18.784   7.860   7.391
 5236W        W12545   3.195   5.504   7.879
 5237W        W12546   3.682   3.142   8.835
 5238W        W12547   2.218   0.247   6.915
 5239W        W12548  10.496   5.959   9.305
 5240W        W12549  13.950   3.588   0.734
 5241W        W12550   1.711   8.345   6.931
 5242W        W12551  11.476   2.659   9.789
 5243W        W12552   5.161   5.045   9.804
 5244W        W12553   3.172   3.598   9.777
 5245W        W12554  11.965   5.974   6.915
 5246W        W12555  14.430   3.102   9.329
 5247W        W12556  16.376   3.142   0.728
 5248W        W12557   9.038   5.971   7.408
 5249W        W12558  14.923   5.045   9.772
 5250W        W12559  13.435   9.777   9.300
 5251W        W12560  12.482   2.184   7.426
 5252W        W12561   4.157   5.976   9.328
 5253W        W12562  16.389   4.565   9.295
 5254W        W12563  18.823   3.124   9.809
 5255W        W12564  15.872   1.223   8.379
 5256W        W12565  10.528   4.076   6.910
 5257W        W12566  12.954   0.728   9.778
 5258W        W12567   1.725   7.414   7.884
 5259W        W12568  12.446   7.875   7.865
 5260W        W12569   6.121   7.416   6.906
 5261W        W12570  16.360   5.505   7.859
 5262W        W12571  11.015   3.600   8.360
 5263W        W12572  14.398   4.539   7.420
 5264W        W12573  11.506   4.078   8.834
 5265W        W12574  15.900   9.809   7.406
 5266W        W12575   5.133   5.515   8.335
 5267W        W12576  15.858   0.719   6.450
 5268W        W12577   2.702   9.299   9.320
 5269W        W12578   1.267   2.639   9.800
 5270W        W12579   8.087   9.783   0.285
 5271W        W12580  12.964   0.733   8.812
 5272W        W12581  13.457   4.074   6.927
 5273W        W12582   7.117   0.740   9.333
 5274W        W12583   4.676   3.118   0.724
 5275W        W12584  14.423   9.799   7.384
 5276W        W12585   6.614   8.820   0.733
 5277W        W12586  17.326   7.864   0.280
 5278W        W12587   3.174   9.327   1.236
 5279W        W12588  19.311   8.356   0.727
 5280W        W12589  17.835   6.909   9.303
 5281W        W12590   1.718   4.552   6.915
 5282W        W12591  17.362   1.217   7.889
 5283W        W12592  18.801   5.975   0.265
 5284W        W12593   1.709   9.300   6.914
 5285W        W12594   9.555   8.852   0.747
 5286W        W12595   6.103   4.541   7.422
 5287W        W12596   8.051   0.270   8.353
 5288W        W12597   1.245   6.943   0.720
 5289W        W12598  14.907   3.122   6.931
 5290W        W12599  15.404   0.739   0.247
 5291W        W12600   0.741   3.580   0.283
 5292W        W12601   9.067   2.189   0.277
 5293W        W12602   3.219   4.528   9.333
 5294W        W12603   4.189   9.787   8.365
 5295W        W12604  11.007   5.036   5.518
 5296W        W12605  10.023   9.295   9.786
 5297W        W12606   3.202   9.330   5.966
 5298W        W12607   6.595   1.227   7.384
 5299W        W12608  19.295   2.637   8.840
 5300W        W12609   9.555   0.719   7.426
 5301W        W12610   5.612   4.565   9.326
 5302W        W12611   8.549   3.607   7.892
 5303W        W12612   9.047   6.922   7.393
 5304W        W12613   0.754   9.795   7.861
 5305W        W12614  17.322   9.792   0.754
 5306W        W12615  14.434   6.433   0.278
 5307W        W12616   8.544   9.797   7.396
 5308W        W12617   4.174   5.984   0.739
 5309W        W12618  10.496   0.744   9.778
 5310W        W12619   5.141   7.384   8.815
 5311W        W12620   4.165   2.172   6.433
 5312W        W12621  12.485   5.485   8.810
 5313W        W12622  11.467   5.021   6.945
 5314W        W12623  17.830   7.882   8.366
 5315W        W12624  11.505   8.343   8.366
 5316W        W12625  12.458   4.565   8.812
 5317W        W12626  15.854   6.469   9.777
 5318W        W12627   9.068   6.925   6.446
 5319W        W12628   6.111   5.483   9.310
 5320W        W12629   7.115   5.009   6.922
 5321W        W12630   6.606   3.110   8.811
 5322W        W12631   1.244   5.480   6.476
 5323W        W12632  16.831   5.040   7.880
 5324W        W12633  17.334   5.986   0.718
 5325W        W12634   5.124   5.010   6.439
 5326W        W12635  17.818   6.922   7.879
 5327W        W12636  15.402   6.941   6.464
 5328W        W12637  11.508   3.587   9.782
 5329W        W12638  11.476   5.022   9.290
 5330W        W12639   3.690   1.196   7.867
 5331W        W12640  19.765   7.890   6.923
 5332W        W12641   8.069   1.673   7.405
 5333W        W12642   3.664   4.078   6.935
 5334W        W12643  11.474   6.445   9.792
 5335W        W12644  16.375   9.764   6.459
 5336W        W12645   8.556   5.512   9.804
 5337W        W12646   0.764   0.748   7.419
 5338W        W12647   5.169   1.678   6.472
 5339W        W12648   1.725   4.065   8.825
 5340W        W12649   1.738   1.681   0.252
 5341W        W12650   3.179   6.907   1.208
 5342W        W12651   4.655   7.425   7.417
 5343W        W12652   7.604   4.528   7.410
 5344W        W12653  19.277   7.889   9.290
 5345W        W12654   7.100   2.156   9.763
 5346W        W12655   3.706   8.812   6.931
 5347W        W12656   6.127   9.773   7.403
 5348W        W12657   7.580   2.657   0.282
 5349W        W12658   6.106   9.296   9.321
 5350W        W12659   2.706   8.354   0.277
 5351W        W12660   1.262   3.138   9.783
 5352W        W12661   5.153   2.650   8.855
 5353W        W12662  10.015   4.071   7.392
 5354W        W12663   2.727   4.073   8.851
 5355W        W12664   4.163   3.103   0.737
 5356W        W12665   6.115   5.006   6.949
 5357W        W12666  11.497   3.105   0.257
 5358W        W12667   1.731   0.759   7.416
 5359W        W12668   4.154   6.462   9.327
 5360W        W12669   5.154   6.941   0.757
 5361W        W12670  11.473   6.459   6.911
 5362W        W12671  14.896   3.117   8.339
 5363W        W12672   5.139   5.971   0.725
 5364W        W12673  10.532   3.138   8.849
 5365W        W12674   6.113   4.083   5.989
 5366W        W12675  19.757   5.996   0.761
 5367W        W12676   7.601   0.282   8.343
 5368W        W12677   4.150   0.741   9.310
 5369W        W12678   8.560   7.876   9.298
 5370W        W12679  19.277   8.815   9.779
 5371W        W12680   8.546   9.775   8.381
 5372W        W12681   5.144   8.353   7.894
 5373W        W12682  14.918   0.260   0.730
 5374W        W12683   4.681   2.162   7.861
 5375W        W12684  15.375   1.227   8.380
 5376W        W12685  14.422   9.783   6.448
 5377W        W12686  12.483   8.836   6.431
 5378W        W12687   9.067   8.854   6.948
 5379W        W12688  16.376   5.033   0.758
 5380W        W12689  12.971   1.210   7.891
 5381W        W12690  17.325   1.714   5.982
 5382W        W12691   3.672   6.444   8.349
 5383W        W12692   7.564   4.088   8.826
 5384W        W12693  19.757   9.791   9.802
 5385W        W12694   0.778   7.424   7.398
 5386W        W12695   2.692   8.361   8.846
 5387W        W12696   4.167   6.475   5.965
 5388W        W12697  11.952   0.761   0.732
 5389W        W12698  12.444   2.631   8.339
 5390W        W12699   7.074   4.570   8.336
 5391W        W12700   3.670   7.408   7.895
 5392W        W12701   9.049   8.338   6.947
 5393W        W12702  10.047   5.519   0.282
 5394W        W12703   8.537   9.784   8.855
 5395W        W12704  15.880   8.336   9.779
 5396W        W12705  12.484   1.229   8.831
 5397W        W12706   2.719   1.698   0.716
 5398W        W12707  18.338   5.976   0.755
 5399W        W12708   2.710   5.495   0.735
 5400W        W12709  14.431   8.827   7.867
 5401W        W12710  15.370   3.615   0.255
 5402W        W12711   0.743   0.240   6.429
 5403W        W12712  15.865   6.463   6.433
 5404W        W12713  17.347   9.307   0.277
 5405W        W12714   0.261   4.568   6.465
 5406W        W12715  11.485   8.825   8.816
 5407W        W12716   4.674   1.697   6.471
 5408W        W12717  12.944   1.711   8.821
 5409W        W12718   3.190   6.460   8.352
 5410W        W12719  16.864   2.159   7.404
 5411W        W12720  12.971   6.913   7.424
 5412W        W12721   2.712   5.042   8.345
 5413W        W12722   3.678   4.088   8.379
 5414W        W12723  11.967   7.866   8.341
 5415W        W12724  17.326   1.233   6.472
 5416W        W12725   7.096   5.001   7.880
 5417W        W12726   5.145   5.003   0.241
 5418W        W12727  17.852   2.661   6.460
 5419W        W12728   4.176   6.911   7.417
 5420W        W12729  16.348   9.776   7.859
 5421W        W12730  11.465   6.913   7.428
 5422W        W12731   3.207   3.106   6.439
 5423W        W12732   8.063   5.482   9.778
 5424W        W12733  10.038   5.003   7.893
 5425W        W12734   5.649   2.620   6.432
 5426W        W12735  16.352   6.941   8.844
 5427W        W12736   3.685   6.438   8.838
 5428W        W12737   9.048   2.165   7.428
 5429W        W12738  18.818   4.053   0.266
 5430W        W12739  17.824   8.856   5.996
 5431W        W12740  16.830   2.628   8.352
 5432W        W12741   0.757   7.867   0.283
 5433W        W12742   2.691   0.254   8.379
 5434W        W12743   6.142   1.212   9.763
 5435W        W12744   0.284   7.868   9.286
 5436W        W12745  11.487   5.966   7.901
 5437W        W12746   9.546   1.693   8.814
 5438W        W12747   7.590   3.115   7.884
 5439W        W12748   7.604   1.222   0.259
 5440W        W12749  19.764   5.995   9.808
 5441W        W12750   6.618   6.456   0.253
 5442W        W12751   8.552   4.571   7.388
 5443W        W12752  19.759   8.844   6.935
 5444W        W12753   0.755   5.035   7.885
 5445W        W12754   4.660   6.474   9.806
 5446W        W12755  11.492   7.871   7.888
 5447W        W12756  14.901   5.046   5.988
 5448W        W12757   5.621   3.597   8.339
 5449W        W12758  16.357   9.787   9.316
 5450W        W12759   1.709   1.209   9.789
 5451W        W12760  12.953   9.796   8.855
 5452W        W12761  10.523   9.789   6.943
 5453W        W12762   2.211   5.009   9.789
 5454W        W12763   4.671   7.872   0.255
 5455W        W12764  13.451   2.180   6.948
 5456W        W12765  12.476   7.882   0.758
 5457W        W12766   3.666   5.982   6.914
 5458W        W12767   6.597   8.344   7.893
 5459W        W12768   5.156   2.147   7.879
 5460W        W12769   3.706   2.176   5.994
 5461W        W12770  18.308   9.315   6.910
 5462W        W12771  17.827   3.113   6.468
 5463W        W12772   2.706   2.655   0.759
 5464W        W12773   3.668   5.019   6.935
 5465W        W12774   8.073   5.961   7.403
 5466W        W12775  17.845   6.439   0.747
 5467W        W12776  17.334   9.291   8.380
 5468W        W12777  19.769   2.151   7.888
 5469W        W12778  17.832   5.492   6.935
 5470W        W12779   3.670   8.818   7.383
 5471W        W12780   6.106   4.086   9.768
 5472W        W12781  14.900   7.394   0.734
 5473W        W12782   1.233   8.810   7.887
 5474W        W12783  12.955   2.156   9.805
 5475W        W12784   2.220   3.586   7.879
 5476W        W12785  18.319   9.776   0.744
 5477W        W12786  11.009   6.952   0.723
 5478W        W12787   9.040   0.246   8.347
 5479W        W12788  13.446   5.509   7.410
 5480W        W12789   1.731   0.247   5.970
 5481W        W12790  17.329   0.719   0.756
 5482W        W12791  18.302   0.742   6.445
 5483W        W12792   4.174   9.315   8.848
 5484W        W12793   1.742   9.781   6.931
 5485W        W12794   7.117   6.465   0.245
 5486W        W12795  15.869   8.841   7.898
 5487W        W12796  17.839   9.322   8.829
 5488W        W12797  15.900   0.746   9.295
 5489W        W12798   7.082   5.997   8.360
 5490W        W12799  11.012   6.464   7.882
 5491W        W12800  19.273   9.306   9.324
 5492W        W12801  18.308   4.070   7.412
 5493W        W12802  16.846   3.597   7.886
 5494W        W12803   3.661   2.143   7.399
 5495W        W12804   8.074   3.117   8.350
 5496W        W12805   3.680   6.948   6.933
 5497W        W12806   8.051   6.925   5.991
 5498W        W12807   9.031   8.348   8.846
 5499W        W12808   6.615   5.483   8.362
 5500W        W12809  15.369   4.086   8.368
 5501W        W12810   2.687   5.488   9.288
 5502W        W12811  11.984   8.366   0.737
 5503W        W12812  18.293   1.685   9.801
 5504W        W12813   0.271   2.176   6.924
 5505W        W12814   2.244   2.647   9.788
 5506W        W12815   9.555   5.021   7.390
 5507W        W12816   5.156   4.556   8.810
 5508W        W12817   8.537   6.446   9.308
 5509W        W12818  14.421   1.676   6.905
 5510W        W12819  13.430   9.327   8.379
 5511W        W12820  11.010   5.985   7.902
 5512W        W12821   9.514   1.690   0.262
 5513W        W12822  16.838   2.656   0.242
 5514W        W12823  11.992   5.519   6.920
 5515W        W12824   7.079   8.835   0.259
 5516W        W12825   7.096   3.578   0.279
 5517W        W12826   7.609   6.452   6.462
 5518W        W12827  10.979   0.278   6.441
 5519W        W12828  16.867   2.626   9.322
 5520W        W12829  18.316   4.537   0.245
 5521W        W12830   1.741   9.307   9.333
 5522W        W12831  12.448   0.283   9.324
 5523W        W12832  11.474   5.478   0.273
 5524W        W12833   9.560   5.973   0.735
 5525W        W12834  11.996   1.224   6.917
 5526W        W12835  12.972   4.550   7.873
 5527W        W12836   4.195   5.974   8.817
 5528W        W12837   3.193   4.074   8.810
 5529W        W12838  16.365   9.329   6.939
 5530W        W12839  12.950   3.588   9.323
 5531W        W12840   1.739   5.957   7.866
 5532W        W12841   0.261   3.103   8.845
 5533W        W12842  14.401   9.304   6.432
 5534W        W12843  17.328   8.833   0.246
 5535W        W12844   2.719   6.459   9.775
 5536W        W12845  13.940   2.185   6.474
 5537W        W12846  11.011   9.326   6.448
 5538W        W12847   8.056   1.228   0.739
 5539W        W12848   5.129   5.963   6.465
 5540W        W12849   2.693   2.624   9.319
 5541W        W12850  17.840   4.064   6.437
 5542W        W12851   5.166   7.397   7.409
 5543W        W12852  17.343   6.466   8.843
 5544W        W12853   0.753   1.191   7.904
 5545W        W12854   8.096   2.175   6.441
 5546W        W12855  10.009   0.756   7.414
 5547W        W12856  19.306   6.929   7.389
 5548W        W12857  18.804   3.608   9.789
 5549W        W12858  12.972   1.227   0.741
 5550W        W12859  10.993   9.323   9.331
 5551W        W12860   2.211   8.856   9.803
 5552W        W12861   0.282   8.850   7.899
 5553W        W12862   0.264   3.129   8.361
 5554W        W12863   6.098   5.042   8.854
 5555W        W12864  18.796   5.965   9.289
 5556W        W12865  15.370   9.800   1.229
 5557W        W12866  16.850   1.698   6.931
 5558W        W12867   6.128   6.474   6.458
 5559W        W12868   1.232   1.688   7.887
 5560W        W12869  19.793   6.932   6.926
 5561W        W12870  11.490   9.795   0.257
 5562W        W12871  17.323   1.705   6.449
 5563W        W12872  17.341   1.228   0.243
 5564W        W12873   1.221   5.479   8.360
 5565W        W12874  10.031   0.255   5.973
 5566W        W12875   7.096   0.730   7.865
 5567W        W12876  13.443   3.106   0.251
 5568W        W12877  14.884   2.146   0.254
 5569W        W12878  19.768   3.603   0.280
 5570W        W12879   9.545   9.332   7.900
 5571W        W12880   5.150   0.757   0.251
 5572W        W12881   6.103   9.801   6.924
 5573W        W12882   4.168   4.554   9.776
 5574W        W12883  17.809   9.772   7.417
 5575W        W12884   7.082   7.390   0.252
 5576W        W12885  18.788   3.582   6.433
 5577W        W12886   7.101   6.449   6.469
 5578W        W12887  10.527   6.430   8.358
 5579W        W12888   7.095   9.799   9.297
 5580W        W12889  11.011   8.832   0.257
 5581W        W12890   2.725   7.871   0.754
 5582W        W12891   2.240   3.099   7.863
 5583W        W12892   9.534   0.242   9.288
 5584W        W12893  17.353   7.893   9.770
 5585W        W12894   7.098   9.307   5.962
 5586W        W12895  13.948   5.993   8.351
 5587W        W12896   5.653   1.224   0.259
 5588W        W12897   7.568   5.973   8.341
 5589W        W12898   2.220   9.318   0.262
 5590W        W12899   4.153   9.773   0.738
 5591W        W12900  11.994   5.966   7.884
 5592W        W12901   8.081   6.430   9.786
 5593W        W12902   9.556   9.766   7.888
 5594W        W12903  15.891   6.909   8.818
 5595W        W12904   8.069   4.525   7.390
 5596W        W12905  11.487   0.269   7.892
 5597W        W12906  11.021   8.812   7.395
 5598W        W12907   5.633   5.961   5.971
 5599W        W12908   2.711   1.695   6.950
 5600W        W12909   9.550   2.641   8.826
 5601W        W12910  16.871   0.754   8.361
 5602W        W12911  15.376   2.168   1.238
 5603W        W12912  17.808   1.697   6.451
 5604W        W12913  15.397   8.373   6.942
 5605W        W12914   6.606   9.782   9.333
 5606W        W12915  11.468   9.286   7.416
 5607W        W12916  13.432   0.734   8.365
 5608W        W12917  11.994   0.273   9.333
 5609W        W12918   9.063   5.044   0.736
 5610W        W12919  16.369   0.264   0.722
 5611W        W12920   3.689   9.770   9.306
 5612W        W12921   4.652   9.789   9.806
 5613W        W12922   1.724   9.324   8.350
 5614W        W12923  11.474   2.665   6.465
 5615W        W12924  13.942   1.704   9.777
 5616W        W12925  11.016   2.665   0.751
 5617W        W12926   4.176   2.165   0.250
 5618W        W12927   6.122   9.768   0.256
 5619W        W12928  10.528   5.002   7.876
 5620W        W12929   8.065   1.225   0.262
 5621W        W12930   7.119   6.449   5.971
 5622W        W12931   8.579   1.233   7.866
 5623W        W12932  17.813   3.104   0.282
 5624W        W12933   0.284   7.902   5.999
 5625W        W12934   3.701   3.597   8.830
 5626W        W12935   8.566   4.534   6.436
 5627W        W12936   8.573   3.578   9.809
 5628W        W12937  11.978   7.412   0.249
 5629W        W12938  11.485   3.583   0.758
 5630W        W12939  17.836   7.863   8.844
 5631W        W12940  10.036   2.647   7.869
 5632W        W12941  11.474   1.685   6.474
 5633W        W12942  19.778   8.364   7.903
 5634W        W12943  11.954   8.817   7.891
 5635W        W12944   9.035   9.771   7.400
 5636W        W12945  18.335   8.828   0.262
 5637W        W12946   3.172   1.703   8.857
 5638W        W12947   0.271   1.232   6.915
 5639W        W12948  17.352   3.586   9.776
 5640W        W12949   9.055   9.316   0.745
 5641W        W12950   8.092   1.667   8.851
 5642W        W12951  17.322   5.019   6.439
 5643W        W12952   0.258   0.259   0.265
 5644W        W12953   9.549   1.672   9.765
 5645W        W12954   9.047   0.250   9.310
 5646W        W12955  16.372   9.308   9.307
 5647W        W12956   5.629   5.040   8.372
 5648W        W12957   4.150   0.755   7.897
 5649W        W12958  13.422   5.958   7.867
 5650W        W12959   4.662   2.656   0.264
 5651W        W12960   0.765   0.735   8.339
 5652W        W12961   4.152   6.448   6.429
 5653W        W12962   9.035   2.169   0.743
 5654W        W12963   5.132   1.714   6.942
 5655W        W12964  17.848   1.219   0.752
 5656W        W12965   5.155   5.009   9.329
 5657W        W12966   2.236   4.561   9.785
 5658W        W12967   2.227   0.741   0.265
 5659W        W12968  12.439   0.726   7.866
 5660W        W12969   3.190   1.712   7.868
 5661W        W12970   5.625   7.874   0.241
 5662W        W12971  17.820   2.666   0.723
 5663W        W12972  12.953   4.090   0.249
 5664W        W12973   6.598   3.578   0.242
 5665W        W12974   8.538   9.784   6.935
 5666W        W12975   3.670   6.949   8.829
 5667W        W12976   1.738   5.503   6.451
 5668W        W12977  17.347   5.509   8.358
 5669W        W12978   2.222   4.542   8.360
 5670W        W12979   8.058   9.310   0.727
 5671W        W12980  16.372   5.984   9.324
 5672W        W12981   9.046   7.873   7.391
 5673W        W12982   4.653   5.965   6.433
 5674W        W12983  14.883   8.814   9.774
 5675W        W12984   5.139   2.181   8.353
 5676W        W12985  16.869   4.524   5.979
 5677W        W12986   9.524   5.044   0.247
 5678W        W12987   0.760   9.775   8.354
 5679W        W12988   5.645   1.209   6.458
 5680W        W12989   8.082   8.821   7.413
 5681W        W12990  17.330   2.620   7.396
 5682W        W12991   1.708   7.881   6.463
 5683W        W12992  10.494   0.284   7.426
 5684W        W12993   7.110   2.656   0.715
 5685W        W12994   0.760   1.693   8.351
 5686W        W12995  10.523   2.637   0.721
 5687W        W12996   6.133   6.437   0.742
 5688W        W12997  14.398   7.862   9.782
 5689W        W12998  19.281   6.436   8.376
 5690W        W12999  15.384   4.076   9.764
 5691W        W13000   9.514   1.231   0.266
 5692W        W13001  13.928   3.105   0.267
 5693W        W13002  11.001   2.620   7.416
 5694W        W13003  17.821   0.744   8.834
 5695W        W13004   2.222   6.941   7.878
 5696W        W13005  14.419   7.411   0.740
 5697W        W13006   4.643   0.752   6.440
 5698W        W13007  16.874   0.717   6.922
 5699W        W13008  17.808   3.126   7.883
 5700W        W13009  10.494   8.829   9.306
 5701W        W13010   0.742   9.768   0.750
 5702W        W13011   8.074   4.557   0.271
 5703W        W13012  11.483   0.272   6.467
 5704W        W13013  13.442   5.953   6.431
 5705W        W13014   6.597   6.947   0.729
 5706W        W13015  18.802   3.138   6.443
 5707W        W13016  12.482   3.595   7.896
 5708W        W13017  15.856   5.996   9.318
 5709W        W13018   1.713   9.333   7.893
 5710W        W13019  17.338   2.185   8.818
 5711W        W13020   6.588   6.944   7.397
 5712W        W13021   8.081   5.988   0.745
 5713W        W13022   9.065   1.202   9.806
 5714W        W13023  11.492   7.400   8.341
 5715W        W13024   1.262   7.418   0.725
 5716W        W13025  19.296   3.586   8.822
 5717W        W13026  19.278   3.582   6.431
 5718W        W13027  12.479   1.209   9.783
 5719W        W13028  10.501   9.332   9.311
 5720W        W13029   8.539   7.384   9.315
 5721W        W13030  16.361   8.368   7.421
 5722W        W13031  17.840   4.528   8.815
 5723W        W13032   4.170   5.992   9.796
 5724W        W13033   2.202   4.093   7.867
 5725W        W13034   3.673   1.203   9.780
 5726W        W13035   0.758   3.138   9.803
 5727W        W13036  19.775   9.779   9.298
 5728W        W13037  14.902   6.917   6.442
 5729W        W13038   9.516   7.891   8.837
 5730W        W13039  10.503   4.547   6.453
 5731W        W13040  17.364   2.625   8.810
 5732W        W13041  12.484   5.955   7.407
 5733W        W13042  10.048   3.107   8.835
 5734W        W13043   1.746   5.995   9.771
 5735W        W13044  15.885   2.157   7.878
 5736W        W13045   7.586   5.964   9.799
 5737W        W13046   1.718   2.650   6.438
 5738W        W13047   2.242   6.435   0.716
 5739W        W13048  12.937   9.326   9.289
 5740W        W13049   9.059   7.862   0.272
 5741W        W13050   0.287   8.844   6.447
 5742W        W13051  12.931   3.601   0.754
 5743W        W13052  11.988   4.556   6.460
 5744W        W13053   7.582   9.321   6.947
 5745W        W13054   2.214   5.513   8.355
 5746W        W13055  16.372   0.715   9.796
 5747W        W13056   6.629   5.023   9.762
 5748W        W13057   5.611   0.715   7.419
 5749W        W13058  13.916   5.489   5.965
 5750W        W13059   1.238   9.288   0.744
 5751W        W13060   6.114   1.212   7.398
 5752W        W13061   5.160   1.216   8.850
 5753W        W13062   6.624   8.857   8.825
 5754W        W13063   2.207   6.918   8.334
 5755W        W13064   6.624   9.776   8.831
 5756W        W13065  10.036   4.079   5.992
 5757W        W13066  17.818   5.504   0.276
 5758W        W13067  15.898   7.402   7.398
 5759W        W13068   7.099   3.575   7.396
 5760W        W13069  18.328   5.477   5.968
 5761W        W13070   5.620   2.163   9.804
 5762W        W13071  18.337   0.754   0.720
 5763W        W13072   5.142   5.990   6.910
 5764W        W13073  12.478   8.839   9.326
 5765W        W13074   7.577   5.021   6.464
 5766W        W13075   2.702   2.148   6.949
 5767W        W13076   4.659   6.435   0.724
 5768W        W13077   2.224   5.954   0.720
 5769W        W13078   5.640   7.878   7.869
 5770W        W13079   8.092   3.610   6.938
 5771W        W13080   5.137   5.478   7.426
 5772W        W13081   0.754   3.609   0.715
 5773W        W13082   8.565   1.692   9.766
 5774W        W13083  10.491   5.032   5.971
 5775W        W13084   7.573   8.853   0.266
 5776W        W13085  12.934   0.721   6.449
 5777W        W13086  17.347   1.703   0.244
 5778W        W13087   9.530   4.051   9.796
 5779W        W13088  16.365   8.820   8.363
 5780W        W13089  13.948   2.145   5.980
 5781W        W13090   3.209   2.151   7.387
 5782W        W13091   1.248   4.560   0.754
 5783W        W13092   1.252   0.753   6.927
 5784W        W13093  13.918   2.151   7.892
 5785W        W13094   7.111   0.259   7.891
 5786W        W13095   5.620   3.108   5.955
 5787W        W13096  12.974   6.910   0.254
 5788W        W13097  13.431   9.797   8.815
 5789W        W13098  19.790   4.533   8.837
 5790W        W13099  14.901   4.076   6.937
 5791W        W13100  15.386   5.960   6.936
 5792W        W13101  15.394   5.490   6.926
 5793W        W13102  10.977   2.190   6.472
 5794W        W13103   3.699   8.836   0.263
 5795W        W13104   9.059   1.691   8.362
 5796W        W13105   7.594   0.254   0.758
 5797W        W13106  11.001   7.890   7.396
 5798W        W13107   1.721   5.020   0.730
 5799W        W13108   2.230   0.755   9.792
 5800W        W13109   7.119   8.840   6.440
 5801W        W13110   1.228   1.234   9.772
 5802W        W13111  13.946   7.903   8.832
 5803W        W13112  15.855   6.458   9.294
 5804W        W13113   9.070   9.792   0.760
 5805W        W13114  12.966   1.692   9.303
 5806W        W13115   4.152   8.810   8.374
 5807W        W13116  17.831   8.815   7.401
 5808W        W13117  10.516   2.166   9.802
 5809W        W13118  14.902   7.400   9.313
 5810W        W13119  10.506   8.341   8.357
 5811W        W13120   9.063   4.080   9.804
 5812W        W13121  16.373   6.935   9.794
 5813W        W13122   5.135   2.629   9.328
 5814W        W13123   8.551   8.376   5.978
 5815W        W13124   3.209   3.607   7.894
 5816W        W13125  17.346   6.465   7.875
 5817W        W13126  11.981   0.274   6.436
 5818W        W13127  19.803   8.369   7.414
 5819W        W13128  12.947   7.406   6.921
 5820W        W13129  19.295   0.727   8.357
 5821W        W13130   5.125   5.015   8.344
 5822W        W13131  15.870   0.272   6.924
 5823W        W13132  15.867   2.643   7.398
 5824W        W13133  13.927   8.338   7.422
 5825W        W13134   6.100   0.735   8.834
 5826W        W13135  17.814   5.978   6.443
 5827W        W13136   0.747   2.627   8.839
 5828W        W13137   6.631   2.620   6.445
 5829W        W13138   6.628   5.503   9.799
 5830W        W13139  12.474   6.458   0.271
 5831W        W13140   7.572   7.385   8.337
 5832W        W13141  13.462   9.764   7.396
 5833W        W13142   7.594   1.225   6.462
 5834W        W13143  15.405   7.866   7.383
 5835W        W13144   0.288   0.243   8.830
 5836W        W13145  14.438   0.250   9.325
 5837W        W13146   6.623   5.504   6.936
 5838W        W13147   4.678   6.919   8.820
 5839W        W13148   4.193   8.814   6.908
 5840W        W13149   6.634   9.297   7.865
 5841W        W13150   9.517   7.902   8.372
 5842W        W13151  14.908   7.395   8.366
 5843W        W13152  19.779   0.747   7.397
 5844W        W13153   6.606   6.455   7.882
 5845W        W13154   0.750   8.819   8.846
 5846W        W13155  17.363   4.568   5.978
 5847W        W13156  18.803   6.915   6.476
 5848W        W13157   7.585   1.211   9.763
 5849W        W13158   0.284   1.238   9.303
 5850W        W13159  13.456   4.546   6.472
 5851W        W13160   2.710   0.244   9.794
 5852W        W13161   4.667   9.296   8.342
 5853W        W13162  15.861   4.082   0.248
 5854W        W13163  12.940   3.586   7.415
 5855W        W13164   8.080   8.848   8.367
 5856W        W13165   9.518   7.884   0.738
 5857W        W13166   1.249   3.571   0.751
 5858W        W13167  18.829   9.803   0.759
 5859W        W13168  13.936   1.681   6.436
 5860W        W13169  19.772   1.695   6.917
 5861W        W13170  15.399   8.855   0.750
 5862W        W13171  14.397   3.613   7.894
 5863W        W13172  12.932   5.005   8.373
 5864W        W13173   5.631   3.604   6.947
 5865W        W13174  19.796   3.584   7.424
 5866W        W13175   5.642   9.292   6.938
 5867W        W13176  17.832   5.995   9.294
 5868W        W13177   8.068   6.473   0.759
 5869W        W13178  11.011   3.104   9.299
 5870W        W13179  18.810   4.531   6.473
 5871W        W13180   3.184   1.232   0.751
 5872W        W13181   9.554   5.513   0.751
 5873W        W13182   0.751   8.349   9.288
 5874W        W13183  19.767   0.242   6.463
 5875W        W13184   7.603   9.800   9.779
 5876W        W13185   7.116   6.439   0.750
 5877W        W13186  17.820   0.722   9.801
 5878W        W13187  19.794   0.258   0.721
 5879W        W13188  10.494   1.678   0.737
 5880W        W13189   6.617   7.872   6.946
 5881W        W13190   6.122   5.502   8.363
 5882W        W13191  15.883   3.582   0.720
 5883W        W13192   0.267   1.220   8.359
 5884W        W13193  15.392   7.400   8.841
 5885W        W13194   1.731   1.671   0.760
 5886W        W13195  19.285   7.879   8.850
 5887W        W13196  18.822   8.828   7.412
 5888W        W13197  14.884   3.592   9.303
 5889W        W13198  15.880   5.009   8.843
 5890W        W13199  16.390   8.360   8.815
 5891W        W13200   7.581   5.958   6.462
 5892W        W13201   7.085   0.274   8.826
 5893W        W13202  16.365   3.123   8.827
 5894W        W13203   9.067   1.209   6.930
 5895W        W13204  11.960   8.357   6.917
 5896W        W13205  10.027   3.141   9.317
 5897W        W13206   0.278   2.619   8.371
 5898W        W13207   6.587   5.998   8.350
 5899W        W13208   7.086   0.275   5.977
 5900W        W13209  17.834   0.748   8.346
 5901W        W13210  18.802   6.475   9.762
 5902W        W13211   8.559   9.332   6.469
 5903W        W13212  18.812   7.892   8.812
 5904W        W13213   8.540   0.277   0.249
 5905W        W13214   6.108   8.338   9.300
 5906W        W13215   0.287   7.425   6.464
 5907W        W13216   7.099   7.890   5.981
 5908W        W13217   9.514   4.067   5.990
 5909W        W13218   0.249   6.910   8.377
 5910W        W13219   0.274   5.513   0.243
 5911W        W13220  16.349   5.485   5.999
 5912W        W13221  15.367   3.121   9.327
 5913W        W13222   7.601   4.552   9.314
 5914W        W13223  18.805   2.154   9.309
 5915W        W13224   2.710   3.596   7.860
 5916W        W13225  18.334   4.545   5.999
 5917W        W13226   6.623   6.919   9.287
 5918W        W13227   5.135   7.425   9.312
 5919W        W13228   3.201   0.752   7.386
 5920W        W13229  16.872   8.336   6.446
 5921W        W13230  15.378   0.759   6.952
 5922W        W13231   8.555   1.216   9.299
 5923W        W13232   0.761   9.326   0.730
 5924W        W13233   2.207   2.172   5.957
 5925W        W13234   1.715   9.804   0.274
 5926W        W13235   0.251   1.214   9.764
 5927W        W13236  14.428   5.508   7.879
 5928W        W13237  18.805   0.255   6.928
 5929W        W13238  18.781   9.300   0.722
 5930W        W13239   5.152   4.062   0.251
 5931W        W13240   6.118   0.739   7.866
 5932W        W13241  16.869   8.372   6.913
 5933W        W13242   9.060   2.148   7.877
 5934W        W13243  12.967   0.271   0.730
 5935W        W13244   3.204   6.914   7.883
 5936W        W13245   1.229   9.762   0.266
 5937W        W13246   4.163   9.294   6.909
 5938W        W13247  11.989   2.642   0.749
 5939W        W13248   4.646   6.912   7.858
 5940W        W13249  16.839   0.279   7.401
 5941W        W13250   8.563   2.636   7.382
 5942W        W13251   6.113   8.810   8.349
 5943W        W13252   2.683   3.101   8.340
 5944W        W13253  13.941   9.765   8.378
 5945W        W13254  13.924   5.983   6.448
 5946W        W13255  19.780   4.068   8.829
 5947W        W13256  11.960   6.000   0.734
 5948W        W13257  12.934   5.515   8.335
 5949W        W13258   4.638   1.697   8.833
 5950W        W13259   0.249   8.363   9.293
 5951W        W13260  11.496   6.944   6.440
 5952W        W13261   3.217   6.451   7.885
 5953W        W13262  12.959   4.069   5.954
 5954W        W13263   6.624   0.259   5.964
 5955W        W13264   7.591   2.625   6.450
 5956W        W13265  19.768   7.890   5.955
 5957W        W13266  10.023   0.735   5.996
 5958W        W13267   7.588   0.264   8.817
 5959W        W13268  19.285   1.214   9.781
 5960W        W13269   7.566   9.777   0.734
 5961W        W13270  13.946   4.078   9.328
 5962W        W13271  12.964   2.662   6.464
 5963W        W13272   0.265   5.491   6.951
 5964W        W13273  12.488   8.370   9.791
 5965W        W13274   0.745   7.862   6.471
 5966W        W13275  19.300   0.245   9.770
 5967W        W13276   0.756   5.503   6.924
 5968W        W13277   3.186   9.316   8.380
 5969W        W13278   9.069   7.421   9.323
 5970W        W13279   0.739   1.207   0.256
 5971W        W13280  10.504   8.366   6.443
 5972W        W13281  14.401   6.948   5.956
 5973W        W13282  19.757   1.211   8.826
 5974W        W13283  11.004   3.106   9.798
 5975W        W13284   3.183   1.231   0.272
 5976W        W13285  16.390   8.834   6.916
 5977W        W13286  10.491   1.220   7.871
 5978W        W13287  15.382   0.245   7.428
 5979W        W13288   1.751   8.829   6.471
 5980W        W13289  12.944   6.933   5.997
 5981W        W13290   2.731   1.217   6.450
 5982W        W13291   3.678   1.205   8.343
 5983W        W13292   5.130   7.903   9.303
 5984W        W13293  19.316   5.046   9.288
 5985W        W13294   3.219   7.884   6.445
 5986W        W13295   9.523   9.777   8.365
 5987W        W13296   7.570   5.483   5.968
 5988W        W13297   8.558   9.775   9.331
 5989W        W13298  10.977   5.506   0.271
 5990W        W13299  14.925   4.054   9.324
 5991W        W13300   0.283   4.051   1.221
 5992W        W13301   9.560   9.762   9.306
 5993W        W13302  14.915   2.656   7.383
 5994W        W13303   8.565   2.630   6.441
 5995W        W13304  11.952   3.133   6.938
 5996W        W13305   1.715   1.689   9.320
 5997W        W13306  17.346   9.766   5.978
 5998W        W13307   5.640   5.038   6.926
 5999W        W13308   8.084   5.020   6.936
 6000W        W13309  11.960   0.255   7.405
 6001W        W13310  13.903   6.952   9.327
 6002W        W13311   1.255   4.566   7.877
 6003W        W13312  19.801   2.654   0.259
 6004W        W13313  11.021   7.420   7.880
 6005W        W13314   7.087   8.335   7.412
 6006W        W13315  16.379   1.205   0.715
 6007W        W13316   9.035   3.141   7.408
 6008W        W13317  16.833   4.061   8.820
 6009W        W13318  16.367   4.561   6.921
 6010W        W13319  10.528   7.870   9.801
 6011W        W13320   3.201   4.565   8.846
 6012W        W13321   1.220   7.891   9.779
 6013W        W13322  14.889   8.371   0.263
 6014W        W13323  16.866   5.971   0.245
 6015W        W13324   4.636   4.542   9.300
 6016W        W13325   6.132   4.070   9.316
 6017W        W13326  18.295   7.873   0.720
 6018W        W13327  15.873   6.949   6.939
 6019W        W13328  11.024   5.509   7.888
 6020W        W13329  13.419   4.052   0.273
 6021W        W13330  19.299   5.496   8.340
 6022W        W13331  19.292   8.824   7.869
 6023W        W13332  10.011   3.606   8.853
 6024W        W13333  16.853   7.903   0.717
 6025W        W13334   9.030   0.761   9.312
 6026W        W13335   6.142   8.354   7.865
 6027W        W13336  19.759   7.886   8.350
 6028W        W13337  14.399   8.373   0.756
 6029W        W13338   6.600   0.248   7.387
 6030W        W13339  14.906   2.157   9.764
 6031W        W13340   2.238   1.712   9.321
 6032W        W13341  15.375   9.789   8.354
 6033W        W13342  14.398   5.961   0.267
 6034W        W13343  15.389   1.693   5.976
 6035W        W13344   3.191   7.427   6.918
 6036W        W13345   7.593   0.282   6.434
 6037W        W13346  18.331   3.105   1.225
 6038W        W13347  17.843   5.032   7.889
 6039W        W13348  18.321   3.130   6.446
 6040W        W13349  15.372   4.536   5.997
 6041W        W13350   7.575   3.577   9.318
 6042W        W13351   8.552   5.999   7.872
 6043W        W13352  11.500   6.942   0.720
 6044W        W13353   4.158   2.161   0.738
 6045W        W13354   6.589   9.315   6.950
 6046W        W13355  10.985   7.402   0.285
 6047W        W13356  10.039   4.524   6.466
 6048W        W13357  17.852   2.176   6.950
 6049W        W13358  17.812   9.804   0.275
 6050W        W13359  11.489   7.381   9.320
 6051W        W13360   1.231   5.968   7.413
 6052W        W13361   2.725   4.049   7.403
 6053W        W13362  11.954   6.907   6.441
 6054W        W13363  14.881   4.558   8.844
 6055W        W13364  11.969   7.418   6.453
 6056W        W13365  14.923   7.405   7.894
 6057W        W13366  10.515   5.978   0.245
 6058W        W13367  12.467   8.822   9.806
 6059W        W13368   3.199   1.231   8.851
 6060W        W13369   1.248   6.431   9.309
 6061W        W13370  19.800   2.633   7.400
 6062W        W13371  17.853   0.728   0.261
 6063W        W13372  18.807   8.376   8.380
 6064W        W13373   8.537   5.985   0.728
 6065W        W13374   4.170   7.397   7.394
 6066W        W13375  17.846   9.764   8.852
 6067W        W13376   9.050   5.495   6.464
 6068W        W13377   7.586   7.881   6.444
 6069W        W13378  11.490   9.773   7.886
 6070W        W13379  14.897   5.038   6.456
 6071W        W13380  11.499   2.620   0.718
 6072W        W13381  10.506   9.329   0.267
 6073W        W13382  15.859   0.247   8.838
 6074W        W13383  15.901   7.401   6.430
 6075W        W13384  19.788   1.199   9.785
 6076W        W13385  13.921   6.473   9.779
 6077W        W13386   3.694   2.167   9.785
 6078W        W13387  15.899   9.804   8.349
 6079W        W13388  17.846   6.474   6.931
 6080W        W13389   0.780   7.421   0.265
 6081W        W13390   1.251   5.021   9.293
 6082W        W13391  14.891   6.469   6.914
 6083W        W13392   3.180   8.347   8.372
 6084W        W13393  17.323   9.802   7.866
 6085W        W13394  17.815   4.063   0.721
 6086W        W13395   6.141   0.282   8.838
 6087W        W13396  11.965   6.474   6.457
 6088W        W13397   7.600   9.313   7.899
 6089W        W13398  11.003   0.756   6.455
 6090W        W13399  12.970   5.523   0.746
 6091W        W13400   6.129   3.598   6.912
 6092W        W13401   7.076   5.019   9.301
 6093W        W13402  11.496   3.126   6.938
 6094W        W13403  17.342   7.399   6.947
 6095W        W13404  10.008   3.573   9.802
 6096W        W13405  18.341   4.056   8.817
 6097W        W13406  13.936   5.029   9.322
 6098W        W13407  16.833   9.326   7.894
 6099W        W13408  12.953   5.003   0.262
 6100W        W13409  11.979   6.918   1.217
 6101W        W13410   1.247   2.636   6.923
 6102W        W13411  13.929   3.616   7.864
 6103W        W13412   7.597   2.165   9.771
 6104W        W13413  19.272   9.796   7.875
 6105W        W13414  17.853   4.559   9.768
 6106W        W13415   6.109   9.311   0.247
 6107W        W13416  17.358   5.479   6.464
 6108W        W13417   5.645   9.313   6.445
 6109W        W13418  13.903   8.364   9.301
 6110W        W13419   3.206   9.767   6.917
 6111W        W13420   4.182   0.748   7.387
 6112W        W13421  10.036   1.195   7.417
 6113W        W13422  19.311   5.989   8.364
 6114W        W13423  13.943   6.917   8.821
 6115W        W13424   9.528   6.429   0.240
 6116W        W13425  11.981   6.455   9.795
 6117W        W13426  16.364   5.007   8.336
 6118W        W13427  12.452   4.078   7.410
 6119W        W13428  17.345   8.819   6.447
 6120W        W13429  14.426   6.435   7.895
 6121W        W13430   3.194   2.145   8.365
 6122W        W13431  16.839   8.362   7.407
 6123W        W13432   4.146   4.050   6.456
 6124W        W13433  16.385   2.150   6.455
 6125W        W13434   7.603   3.100   6.920
 6126W        W13435   3.680   1.214   6.927
 6127W        W13436  17.853   9.787   8.369
 6128W        W13437  15.375   2.163   9.803
 6129W        W13438  13.415   5.005   8.832
 6130W        W13439  18.328   1.223   6.465
 6131W        W13440   3.198   4.088   8.378
 6132W        W13441  10.500   8.823   7.408
 6133W        W13442  18.297   6.909   8.344
 6134W        W13443   9.550   1.231   7.383
 6135W        W13444  17.319   3.102   0.243
 6136W        W13445   5.144   0.746   8.812
 6137W        W13446   3.683   0.750   9.303
 6138W        W13447  11.507   9.311   8.344
 6139W        W13448   9.559   3.121   9.294
 6140W        W13449  11.955   9.325   7.392
 6141W        W13450   4.661   0.756   8.335
 6142W        W13451  13.948   8.827   6.950
 6143W        W13452  16.342   9.771   7.418
 6144W        W13453   7.587   7.883   0.746
 6145W        W13454  15.367   7.404   8.347
 6146W        W13455  11.005   5.982   8.343
 6147W        W13456  14.900   8.350   8.811
 6148W        W13457  18.340   8.339   9.769
 6149W        W13458   2.726   3.595   0.265
 6150W        W13459  11.486   7.889   9.796
 6151W        W13460  19.307   5.510   8.814
 6152W        W13461   1.750   3.599   8.360
 6153W        W13462  11.467   5.036   5.967
 6154W        W13463   0.246   0.755   8.851
 6155W        W13464  14.903   9.306   7.395
 6156W        W13465  11.952   0.268   8.824
 6157W        W13466   8.078   4.055   7.895
 6158W        W13467  11.012   0.239   8.338
 6159W        W13468   4.163   1.203   6.464
 6160W        W13469  11.483   1.674   6.950
 6161W        W13470  18.807   5.954   6.926
 6162W        W13471   0.738   8.374   0.283
 6163W        W13472  16.387   2.155   9.325
 6164W        W13473  17.820   8.378   6.432
 6165W        W13474  10.977   3.112   7.858
 6166W        W13475   6.588   7.889   6.452
 6167W        W13476   1.228   8.845   9.785
 6168W        W13477  17.817   5.028   8.348
 6169W        W13478   7.606   5.477   8.336
 6170W        W13479   8.539   4.079   8.841
 6171W        W13480  19.272   0.252   8.824
 6172W        W13481  18.337   4.061   0.735
 6173W        W13482   1.227   9.799   6.908
 6174W        W13483   7.595   0.736   6.433
 6175W        W13484   9.513   5.046   9.768
 6176W        W13485   0.767   4.085   9.287
 6177W        W13486   9.561   3.098   8.843
 6178W        W13487  16.841   8.852   6.938
 6179W        W13488  15.886   9.308   9.777
 6180W        W13489  12.451   7.900   8.360
 6181W        W13490  13.421   3.605   0.732
 6182W        W13491  17.839   8.375   8.378
 6183W        W13492  11.496   0.755   0.731
 6184W        W13493   4.639   5.519   7.871
 6185W        W13494   4.674   4.546   6.474
 6186W        W13495   3.208   3.131   6.952
 6187W        W13496   5.616   4.524   8.845
 6188W        W13497   3.216   3.607   0.266
 6189W        W13498  17.346   9.806   0.280
 6190W        W13499  16.848   1.699   9.781
 6191W        W13500   4.189   7.861   0.738
 6192W        W13501  11.978   4.067   9.786
 6193W        W13502   4.154   9.767   9.314
 6194W        W13503  14.395   3.577   8.837
 6195W        W13504   3.690   0.718   7.879
 6196W        W13505   2.721   4.528   7.412
 6197W        W13506  11.989   3.129   9.328
 6198W        W13507   5.614   4.571   0.281
 6199W        W13508  10.006   9.314   6.435
 6200W        W13509  17.812   3.099   6.947
 6201W        W13510   8.091   4.532   6.456
 6202W        W13511  19.805   3.599   9.763
 6203W        W13512  10.978   3.618   6.443
 6204W        W13513  11.487   2.171   9.762
 6205W        W13514   8.070   5.023   9.314
 6206W        W13515   1.262   8.341   9.808
 6207W        W13516  15.370   9.286   6.465
 6208W        W13517  15.869   2.179   9.292
 6209W        W13518  15.410   0.266   7.878
 6210W        W13519  19.787   1.708   5.969
 6211W        W13520  16.390   7.416   6.447
 6212W        W13521   9.557   6.938   7.890
 6213W        W13522  14.391   6.472   8.841
 6214W        W13523   7.580   8.362   6.458
 6215W        W13524   1.256   8.340   7.427
 6216W        W13525   7.603   9.799   6.916
 6217W        W13526  15.372   1.697   0.741
 6218W        W13527   2.698   4.089   6.448
 6219W        W13528  13.451   6.453   6.922
 6220W        W13529  11.476   2.159   9.298
 6221W        W13530  18.823   4.560   7.861
 6222W        W13531   8.566   8.846   7.397
 6223W        W13532  18.316   9.305   6.443
 6224W        W13533  19.786   5.491   6.915
 6225W        W13534   8.060   2.155   8.345
 6226W        W13535  14.916   2.151   6.923
 6227W        W13536  10.033   7.896   9.321
 6228W        W13537   6.615   6.437   6.448
 6229W        W13538   2.702   9.302   0.251
 6230W        W13539  11.987   2.658   7.385
 6231W        W13540  12.956   1.199   9.322
 6232W        W13541   4.168   5.975   6.454
 6233W        W13542   6.103   9.777   9.308
 6234W        W13543   1.741   9.792   7.870
 6235W        W13544  16.872   7.392   0.248
 6236W        W13545  17.322   9.765   6.952
 6237W        W13546   0.752   6.470   6.912
 6238W        W13547   7.082   8.366   6.439
 6239W        W13548   3.218   5.001   7.389
 6240W        W13549   2.722   1.671   7.881
 6241W        W13550   0.278   5.523   7.874
 6242W        W13551   4.642   0.759   5.970
 6243W        W13552   5.132   0.717   9.293
 6244W        W13553   5.651   1.690   9.768
 6245W        W13554  18.814   3.096   8.339
 6246W        W13555  19.294   3.575   0.242
 6247W        W13556  15.395   2.634   8.821
 6248W        W13557  12.942   5.982   9.330
 6249W        W13558  19.762   4.554   6.432
 6250W        W13559  15.397   5.956   0.735
 6251W        W13560  10.517   1.674   6.926
 6252W        W13561   9.522   2.148   8.380
 6253W        W13562  19.280   4.090   6.935
 6254W        W13563   5.647   1.684   5.954
 6255W        W13564   8.074   6.916   9.317
 6256W        W13565   9.549   0.282   6.945
 6257W        W13566   8.554   5.994   0.239
 6258W        W13567  19.777   8.347   9.303
 6259W        W13568   0.779   4.565   6.916
 6260W        W13569   1.239   5.482   9.296
 6261W        W13570  19.293   4.548   8.372
 6262W        W13571  14.424   1.678   0.725
 6263W        W13572   7.607   2.182   6.937
 6264W        W13573   3.203   3.139   8.833
 6265W        W13574   0.271   3.141   9.303
 6266W        W13575   8.079   8.364   6.472
 6267W        W13576   6.589   8.374   6.465
 6268W        W13577  13.915   3.573   9.322
 6269W        W13578  15.854   4.049   7.889
 6270W        W13579   2.719   7.887   6.447
 6271W        W13580  15.879   5.959   6.907
 6272W        W13581   2.207   3.129   6.921
 6273W        W13582  10.517   3.135   0.757
 6274W        W13583  18.340   5.516   7.420
 6275W        W13584  13.924   6.463   9.324
 6276W        W13585  16.365   0.754   8.813
 6277W        W13586  13.947   3.619   8.854
 6278W        W13587  14.404   4.528   9.296
 6279W        W13588   5.166   3.142   7.387
 6280W        W13589  13.904   5.975   0.284
 6281W        W13590   1.713   5.972   7.411
 6282W        W13591  17.850   1.196   8.371
 6283W        W13592  19.298   3.133   5.954
 6284W        W13593   4.169   4.091   8.346
 6285W        W13594   5.124   1.201   0.724
 6286W        W13595   4.191   2.658   0.265
 6287W        W13596  15.380   7.886   9.288
 6288W        W13597   6.632   1.233   0.718
 6289W        W13598  11.980   3.135   0.754
 6290W        W13599  12.952   6.434   6.436
 6291W        W13600  12.443   3.132   7.407
 6292W        W13601  19.781   9.308   9.304
 6293W        W13602  13.930   1.218   8.375
 6294W        W13603   3.664   4.049   6.449
 6295W        W13604   2.712   9.771   8.359
 6296W        W13605   8.581   3.131   8.847
 6297W        W13606  19.282   1.213   0.276
 6298W        W13607  19.269   3.122   7.427
 6299W        W13608  19.799   3.616   8.344
 6300W        W13609  15.371   4.536   6.930
 6301W        W13610  17.323   0.724   7.884
 6302W        W13611  13.463   5.484   6.444
 6303W        W13612   0.252   5.965   7.878
 6304W        W13613  11.013   1.689   6.456
 6305W        W13614   7.605   7.417   9.297
 6306W        W13615   6.622   7.882   9.322
 6307W        W13616  17.817   6.470   6.473
 6308W        W13617   9.064   2.657   7.876
 6309W        W13618   4.674   8.378   6.944
 6310W        W13619   2.221   3.097   5.955
 6311W        W13620   8.572   1.684   7.389
 6312W        W13621  16.839   2.163   9.320
 6313W        W13622  10.033   8.373   5.962
 6314W        W13623  16.854   5.510   5.982
 6315W        W13624   7.076   5.477   8.362
 6316W        W13625   0.268   0.728   0.260
 6317W        W13626  11.013   5.956   0.251
 6318W        W13627  19.298   0.284   6.432
 6319W        W13628  16.377   8.826   9.773
 6320W        W13629  10.005   8.366   9.795
 6321W        W13630   3.704   5.477   9.328
 6322W        W13631  11.013   8.348   8.832
 6323W        W13632  15.402   3.105   0.733
 6324W        W13633   3.199   4.059   7.381
 6325W        W13634  10.997   4.051   6.921
 6326W        W13635   6.629   7.898   8.849
 6327W        W13636  12.963   7.894   8.829
 6328W        W13637   8.093   5.989   6.460
 6329W        W13638   9.541   5.993   5.989
 6330W        W13639   5.126   8.372   8.374
 6331W        W13640   3.666   1.226   8.837
 6332W        W13641  14.426   5.509   0.757
 6333W        W13642  17.843   6.948   8.842
 6334W        W13643  10.535   0.268   0.267
 6335W        W13644  10.524   8.369   7.875
 6336W        W13645   3.686   6.946   8.348
 6337W        W13646   3.666   1.227   6.430
 6338W        W13647   4.184   2.162   9.793
 6339W        W13648  16.851   3.137   9.809
 6340W        W13649   5.136   1.670   0.758
 6341W        W13650  12.960   3.139   0.243
 6342W        W13651   4.154   5.504   9.296
 6343W        W13652   8.076   7.903   8.843
 6344W        W13653  13.932   6.439   7.904
 6345W        W13654   8.563   1.205   6.447
 6346W        W13655  15.879   0.243   7.892
 6347W        W13656  17.807   2.165   6.474
 6348W        W13657   6.588   8.816   6.942
 6349W        W13658  17.338   7.903   8.818
 6350W        W13659   2.220   7.897   6.466
 6351W        W13660  16.854   6.430   0.273
 6352W        W13661   4.657   9.806   0.749
 6353W        W13662  12.939   6.474   9.320
 6354W        W13663  17.332   3.603   6.464
 6355W        W13664  10.029   2.153   7.408
 6356W        W13665   9.549   0.749   6.457
 6357W        W13666   6.145   1.202   6.446
 6358W        W13667   0.741   4.571   8.833
 6359W        W13668   7.117   6.437   7.417
 6360W        W13669   5.152   9.288   9.769
 6361W        W13670  12.454   6.948   9.311
 6362W        W13671   7.579   7.903   7.901
 6363W        W13672   4.155   3.132   7.887
 6364W        W13673   7.108   9.765   6.431
 6365W        W13674  12.461   8.818   0.260
 6366W        W13675  18.324   4.058   9.317
 6367W        W13676  15.888   0.761   0.243
 6368W        W13677   7.096   7.420   6.915
 6369W        W13678   6.594   4.553   8.361
 6370W        W13679  11.971   3.103   8.349
 6371W        W13680  17.835   7.383   0.760
 6372W        W13681   1.234   5.518   0.737
 6373W        W13682  19.777   2.185   6.933
 6374W        W13683  10.046   6.462   9.332
 6375W        W13684   9.542   6.950   9.787
 6376W        W13685  15.886   7.387   8.826
 6377W        W13686   5.147   3.582   8.829
 6378W        W13687  12.970   8.848   9.299
 6379W        W13688  13.931   6.919   7.881
 6380W        W13689   6.602   2.170   8.825
 6381W        W13690  15.901   3.117   8.851
 6382W        W13691   5.649   9.794   7.393
 6383W        W13692  11.466   0.242   0.285
 6384W        W13693  10.527   9.789   0.736
 6385W        W13694  14.881   4.054   0.278
 6386W        W13695   5.132   6.928   6.923
 6387W        W13696  18.812   3.604   8.366
 6388W        W13697  18.781   9.801   8.811
 6389W        W13698   3.668   9.794   7.893
 6390W        W13699   4.151   9.333   6.464
 6391W        W13700  16.363   7.395   6.932
 6392W        W13701   3.207   1.695   9.805
 6393W        W13702   7.079   2.169   0.279
 6394W        W13703  13.921   9.319   0.758
 6395W        W13704   8.068   7.863   6.950
 6396W        W13705  16.384   6.448   7.883
 6397W        W13706   0.266   9.772   9.308
 6398W        W13707   2.694   1.684   0.283
 6399W        W13708  11.016   6.430   9.809
 6400W        W13709   0.739   1.209   6.457
 6401W        W13710   5.652   2.653   6.924
 6402W        W13711   8.571   5.969   5.486
 6403W        W13712  10.521   1.687   9.311
 6404W        W13713  14.926   0.279   6.445
 6405W        W13714   4.639   3.117   7.397
 6406W        W13715  11.010   7.859   0.244
 6407W        W13716   3.188   7.396   6.432
 6408W        W13717   6.123   8.815   5.967
 6409W        W13718   0.744   3.099   6.935
 6410W        W13719  15.855   7.381   9.322
 6411W        W13720   1.735   6.943   6.952
 6412W        W13721   4.156   4.083   9.319
 6413W        W13722   0.765   0.717   7.886
 6414W        W13723   7.606   4.547   6.948
 6415W        W13724  15.887   0.736   5.969
 6416W        W13725  15.400   3.605   8.356
 6417W        W13726   6.622   3.121   0.253
 6418W        W13727  15.368   7.878   7.893
 6419W        W13728  12.970   3.609   9.788
 6420W        W13729   9.552   6.911   7.395
 6421W        W13730  19.773   5.494   7.396
 6422W        W13731  12.956   5.026   9.762
 6423W        W13732   2.208   9.317   6.463
 6424W        W13733   3.680   5.496   7.386
 6425W        W13734  18.825   0.746   0.279
 6426W        W13735   3.191   1.238   6.454
 6427W        W13736   3.208   9.303   7.882
 6428W        W13737   1.223   5.970   6.940
 6429W        W13738  12.970   7.406   7.898
 6430W        W13739   9.552   4.086   0.249
 6431W        W13740  10.529   8.371   9.789
 6432W        W13741  19.300   7.865   7.902
 6433W        W13742  18.317   2.169   8.839
 6434W        W13743  19.777   9.307   6.473
 6435W        W13744  18.796   1.673   7.386
 6436W        W13745   8.539   9.294   7.414
 6437W        W13746   6.140   8.337   6.474
 6438W        W13747   4.660   7.859   7.897
 6439W        W13748   3.660   4.065   7.410
 6440W        W13749   8.088   6.444   6.933
 6441W        W13750  11.965   0.252   6.906
 6442W        W13751  12.473   1.201   9.319
 6443W        W13752  10.503   5.992   8.377
 6444W        W13753   2.204   1.200   6.950
 6445W        W13754   0.739   6.922   9.791
 6446W        W13755   2.202   1.684   5.964
 6447W        W13756   0.764   6.948   9.313
 6448W        W13757   0.753   6.926   5.976
 6449W        W13758   0.765   3.573   8.832
 6450W        W13759   7.078   7.408   7.897
 6451W        W13760  14.393   3.572   0.270
 6452W        W13761   8.069   7.869   6.454
 6453W        W13762   3.704   1.695   7.412
 6454W        W13763  14.894   3.603   8.334
 6455W        W13764  16.864   1.678   7.407
 6456W        W13765   0.261   2.654   7.394
 6457W        W13766  18.827   6.952   0.240
 6458W        W13767  16.866   2.190   8.359
 6459W        W13768   6.597   6.922   9.795
 6460W        W13769   1.755   1.694   9.797
 6461W        W13770   0.262   1.206   0.729
 6462W        W13771  19.275   6.468   9.787
 6463W        W13772  16.352   1.215   6.456
 6464W        W13773   1.260   0.725   8.855
 6465W        W13774   5.610   9.794   8.841
 6466W        W13775  12.936   7.859   6.938
 6467W        W13776   9.048   9.330   8.365
 6468W        W13777   3.213   4.061   9.763
 6469W        W13778  18.335   5.993   9.300
 6470W        W13779   4.671   0.260   8.357
 6471W        W13780  13.423   0.716   8.813
 6472W        W13781   2.227   6.912   0.280
 6473W        W13782  13.940   0.721   6.462
 6474W        W13783   8.062   3.113   6.929
 6475W        W13784   4.178   5.483   0.272
 6476W        W13785   7.567   5.483   0.760
 6477W        W13786  17.845   7.881   9.298
 6478W        W13787  11.980   2.622   6.946
 6479W        W13788   1.715   6.453   9.774
 6480W        W13789   7.585   1.203   7.417
 6481W        W13790   7.567   1.215   8.856
 6482W        W13791   4.667   6.922   9.292
 6483W        W13792  10.046   8.836   9.302
 6484W        W13793  13.926   9.809   5.987
 6485W        W13794   6.630   8.335   0.285
 6486W        W13795  18.324   0.746   7.413
 6487W        W13796  14.434   6.928   7.392
 6488W        W13797   6.588   5.495   6.441
 6489W        W13798  12.975   3.125   5.972
 6490W        W13799  16.874   4.057   8.380
 6491W        W13800   9.548   2.165   7.403
 6492W        W13801   2.227   4.567   6.443
 6493W        W13802   3.691   4.566   0.734
 6494W        W13803   6.140   7.877   0.740
 6495W        W13804  10.026   8.857   7.390
 6496W        W13805  11.489   4.527   9.320
 6497W        W13806  16.836   9.773   9.295
 6498W        W13807   4.637   9.792   0.258
 6499W        W13808   8.080   1.206   9.305
 6500W        W13809   7.077   0.256   9.785
 6501W        W13810   0.264   1.202   6.431
 6502W        W13811   2.211   2.665   7.387
 6503W        W13812  15.400   9.765   6.924
 6504W        W13813   6.143   3.600   0.721
 6505W        W13814   6.598   5.016   8.372
 6506W        W13815  17.327   5.004   7.383
 6507W        W13816  14.894   0.281   0.264
 6508W        W13817  18.814   9.787   6.929
 6509W        W13818   1.750   1.711   8.845
 6510W        W13819  15.871   5.035   6.942
 6511W        W13820   2.707   1.221   9.319
 6512W        W13821   5.163   2.653   0.739
 6513W        W13822  15.402   7.391   0.283
 6514W        W13823   9.026   0.244   7.421
 6515W        W13824   8.092   9.333   0.276
 6516W        W13825   2.240   9.297   7.894
 6517W        W13826   5.163   5.043   0.760
 6518W        W13827  14.922   2.639   0.762
 6519W        W13828   0.766   6.474   9.311
 6520W        W13829   6.613   8.380   8.857
 6521W        W13830   7.095   7.883   0.279
 6522W        W13831  13.419   1.700   7.402
 6523W        W13832  11.510   9.803   9.807
 6524W        W13833  16.348   7.405   0.740
 6525W        W13834   4.654   3.138   9.783
 6526W        W13835   5.647   4.554   6.927
 6527W        W13836  16.843   5.491   8.855
 6528W        W13837   9.547   2.633   7.885
 6529W        W13838  11.005   0.744   0.249
 6530W        W13839  18.316   5.486   9.764
 6531W        W13840  13.904   9.324   8.847
 6532W        W13841  19.281   1.192   9.301
 6533W        W13842  10.033   5.037   8.810
 6534W        W13843   1.736   1.224   0.248
 6535W        W13844   0.292   7.883   7.867
 6536W        W13845  10.993   0.746   7.891
 6537W        W13846   6.618   5.961   7.859
 6538W        W13847   6.602   7.402   8.351
 6539W        W13848   1.747   5.490   9.306
 6540W        W13849  19.315   7.900   6.949
 6541W        W13850   1.221   2.158   6.922
 6542W        W13851  19.311   2.654   9.804
 6543W        W13852   7.086   7.418   8.857
 6544W        W13853  10.035   4.048   8.351
 6545W        W13854  12.456   0.761   0.755
 6546W        W13855   2.725   5.995   6.912
 6547W        W13856   0.732   5.014   6.949
 6548W        W13857   1.738   5.509   6.918
 6549W        W13858   5.652   9.806   9.304
 6550W        W13859   3.703   4.531   8.857
 6551W        W13860  19.312   9.314   5.992
 6552W        W13861   4.168   0.280   7.901
 6553W        W13862  15.410   5.981   9.763
 6554W        W13863   7.086   0.284   7.393
 6555W        W13864  18.788   3.102   6.922
 6556W        W13865  13.941   9.296   9.763
 6557W        W13866  19.773   0.733   6.907
 6558W        W13867  19.786   0.283   0.239
 6559W        W13868   2.211   6.464   6.432
 6560W        W13869  17.319   4.090   8.852
 6561W        W13870   7.578   5.001   7.413
 6562W        W13871  15.376   0.752   8.839
 6563W        W13872   2.223   1.231   7.418
 6564W        W13873   4.681   8.830   9.327
 6565W        W13874   8.569   0.726   9.771
 6566W        W13875  19.306   0.740   0.263
 6567W        W13876   0.267   3.618   0.246
 6568W        W13877  16.847   4.527   0.275
 6569W        W13878   1.257   3.112   9.327
 6570W        W13879  10.001   0.282   7.417
 6571W        W13880  16.857   2.147   9.796
 6572W        W13881   8.088   2.651   7.898
 6573W        W13882   6.110   2.145   6.914
 6574W        W13883  10.493   0.754   8.336
 6575W        W13884   1.736   6.467   7.413
 6576W        W13885   3.696   2.184   8.828
 6577W        W13886   8.067   9.302   8.349
 6578W        W13887   6.108   0.280   7.387
 6579W        W13888  18.328   4.089   9.801
 6580W        W13889   2.235   9.332   8.353
 6581W        W13890  13.943   7.871   7.897
 6582W        W13891   2.727   9.804   6.430
 6583W        W13892  17.358   0.243   0.281
 6584W        W13893   5.611   9.786   8.354
 6585W        W13894  18.792   8.339   7.388
 6586W        W13895  18.299   6.917   0.253
 6587W        W13896  14.420   8.827   7.402
 6588W        W13897  10.518   7.411   9.792
 6589W        W13898  17.814   7.406   7.412
 6590W        W13899   6.600   9.330   0.266
 6591W        W13900  15.380   0.264   8.842
 6592W        W13901   6.625   9.800   0.274
 6593W        W13902   6.119   9.802   0.751
 6594W        W13903   6.141   4.570   5.995
 6595W        W13904   4.164   9.331   9.286
 6596W        W13905   2.211   4.082   6.459
 6597W        W13906  19.314   2.639   9.330
 6598W        W13907  13.433   9.294   0.732
 6599W        W13908   4.163   5.009   9.789
 6600W        W13909   9.538   4.549   9.322
 6601W        W13910  13.932   2.637   7.880
 6602W        W13911  13.419   1.229   6.434
 6603W        W13912  18.823   4.074   7.397
 6604W        W13913  16.838   3.132   6.453
 6605W        W13914  18.798   5.973   8.341
 6606W        W13915   4.669   4.070   9.289
 6607W        W13916   5.142   9.320   0.752
 6608W        W13917  19.295   3.126   7.891
 6609W        W13918  15.403   0.734   9.289
 6610W        W13919   5.615   0.747   6.952
 6611W        W13920  11.018   2.171   5.980
 6612W        W13921   0.747   6.936   7.886
 6613W        W13922  10.003   3.595   8.378
 6614W        W13923  10.526   3.142   1.199
 6615W        W13924  13.453   5.520   1.237
 6616W        W13925   1.742   7.902   7.403
 6617W        W13926   3.671   1.672   9.790
 6618W        W13927   6.128   3.120   0.240
 6619W        W13928   8.055   0.239   8.811
 6620W        W13929  11.008   9.789   0.718
 6621W        W13930   8.083   7.408   5.508
 6622W        W13931  19.794   5.030   7.897
 6623W        W13932  15.373   0.716   8.374
 6624W        W13933  10.040   0.746   9.793
 6625W        W13934  19.757   3.112   6.950
 6626W        W13935   0.737   6.448   7.409
 6627W        W13936  15.887   9.292   8.340
 6628W        W13937   0.257   5.006   6.945
 6629W        W13938   0.251   0.729   0.755
 6630W        W13939  17.334   2.627   0.754
 6631W        W13940   5.643   8.838   0.274
 6632W        W13941  17.844   0.253   8.368
 6633W        W13942   3.668   5.512   5.980
 6634W        W13943   3.177   4.094   6.431
 6635W        W13944  19.789   2.663   9.310
 6636W        W13945  17.830   8.374   7.866
 6637W        W13946  11.983   4.074   9.331
 6638W        W13947   4.637   3.589   8.828
 6639W        W13948  19.778   5.041   6.433
 6640W        W13949  18.302   5.954   8.378
 6641W        W13950  19.315   7.422   8.831
 6642W        W13951  12.947   5.523   8.821
 6643W        W13952  10.978   4.565   8.365
 6644W        W13953  10.513   9.318   7.891
 6645W        W13954   2.235   7.417   9.793
 6646W        W13955   8.097   4.087   6.435
 6647W        W13956   8.553   7.884   1.196
 6648W        W13957  12.953   4.079   8.814
 6649W        W13958  18.295   5.973   8.819
 6650W        W13959   4.168   9.289   9.802
 6651W        W13960  11.989   8.369   9.300
 6652W        W13961  16.345   0.725   7.865
 6653W        W13962  15.894   4.564   6.914
 6654W        W13963   9.062   6.442   0.760
 6655W        W13964  15.372   8.341   5.991
 6656W        W13965  10.036   1.670   7.389
 6657W        W13966  16.871   6.446   8.359
 6658W        W13967  17.351   5.979   8.335
 6659W        W13968  12.933   8.844   8.823
 6660W        W13969  13.922   7.422   0.243
 6661W        W13970  10.049   2.189   7.875
 6662W        W13971  13.942   8.828   7.396
 6663W        W13972   7.610   0.737   6.922
 6664W        W13973  11.497   4.568   6.453
 6665W        W13974  10.533   1.714   9.809
 6666W        W13975   6.625   4.524   7.407
 6667W        W13976  15.399   5.001   0.257
 6668W        W13977  17.834   2.157   9.795
 6669W        W13978  12.953   8.816   6.429
 6670W        W13979  13.934   0.248   9.774
 6671W        W13980   9.029   5.504   0.252
 6672W        W13981   9.043   2.654   8.815
 6673W        W13982  16.863   8.811   6.450
 6674W        W13983  10.520   7.388   8.850
 6675W        W13984  14.393   6.914   8.335
 6676W        W13985   3.704   5.043   6.473
 6677W        W13986   2.685   4.567   7.900
 6678W        W13987  12.484   2.154   8.377
 6679W        W13988   7.562   5.001   9.790
 6680W        W13989   6.612   5.488   8.837
 6681W        W13990   5.156   2.143   8.848
 6682W        W13991  13.430   8.826   8.854
 6683W        W13992   4.664   6.915   7.383
 6684W        W13993   5.151   0.246   8.347
 6685W        W13994  11.992   2.147   5.978
 6686W        W13995   8.071   5.519   0.729
 6687W        W13996  17.831   4.549   0.243
 6688W        W13997  17.338   7.418   7.863
 6689W        W13998   2.239   8.335   8.830
 6690W        W13999   6.601   7.875   9.807
 6691W        W14000   7.094   1.207   7.426
 6692W        W14001   0.762   7.421   6.948
 6693W        W14002  11.495   0.756   5.996
 6694W        W14003  13.921   9.772   0.274
 6695W        W14004  12.455   4.568   7.423
 6696W        W14005   4.163   2.185   8.834
 6697W        W14006  11.006   8.831   9.329
 6698W        W14007  19.795   3.138   6.474
 6699W        W14008   3.674   9.797   8.334
 6700W        W14009   3.216   1.210   8.368
 6701W        W14010   5.653   6.467   7.868
 6702W        W14011  12.928   5.482   5.986
 6703W        W14012  10.028   6.907   7.899
 6704W        W14013  13.442   0.761   5.993
 6705W        W14014  15.375   8.853   6.947
 6706W        W14015  18.331   4.091   6.941
 6707W        W14016   1.242   9.303   8.820
 6708W        W14017   6.142   4.092   0.245
 6709W        W14018   2.224   4.563   5.965
 6710W        W14019  18.318   5.479   0.274
 6711W        W14020  11.499   3.574   7.862
 6712W        W14021  16.344   5.038   7.888
 6713W        W14022   0.289   4.068   0.273
 6714W        W14023   2.232   8.818   6.919
 6715W        W14024   3.185   7.382   8.842
 6716W        W14025   6.611   1.236   7.887
 6717W        W14026  18.828   4.550   0.752
 6718W        W14027  14.400   5.479   9.295
 6719W        W14028   7.122   9.313   6.929
 6720W        W14029   4.148   0.252   6.432
 6721W        W14030   5.164   2.662   6.942
 6722W        W14031   9.054   7.873   8.825
 6723W        W14032  11.478   2.152   6.437
 6724W        W14033  12.476   6.947   6.933
 6725W        W14034  10.513   5.017   8.854
 6726W        W14035   0.283   6.913   9.304
 6727W        W14036  13.437   1.225   9.308
 6728W        W14037  14.884   7.403   9.779
 6729W        W14038  10.016   8.837   8.848
 6730W        W14039   8.053   6.935   0.744
 6731W        W14040  18.334   6.927   5.966
 6732W        W14041  14.924   5.007   7.389
 6733W        W14042  17.846   1.197   7.420
 6734W        W14043  19.314   4.068   7.891
 6735W        W14044   8.565   7.420   8.840
 6736W        W14045   9.067   0.279   0.728
 6737W        W14046   8.565   2.634   7.876
 6738W        W14047  13.420   2.645   6.456
 6739W        W14048  12.927   8.375   0.256
 6740W        W14049   4.638   9.789   5.990
 6741W        W14050  11.006   2.642   9.767
 6742W        W14051   9.540   6.463   6.940
 6743W        W14052   9.561   5.953   6.476
 6744W        W14053   9.032   8.378   9.307
 6745W        W14054  12.452   3.601   8.374
 6746W        W14055  18.336   1.691   5.977
 6747W        W14056  17.825   3.575   8.842
 6748W        W14057  11.511   1.699   8.816
 6749W        W14058  12.473   4.561   6.472
 6750W        W14059   3.681   9.299   8.373
 6751W        W14060   7.581   1.668   6.915
 6752W        W14061   5.163   1.707   0.263
 6753W        W14062  13.905   5.500   6.917
 6754W        W14063  17.350   6.459   7.394
 6755W        W14064  14.436   8.837   9.775
 6756W        W14065   6.116   3.582   6.441
 6757W        W14066   8.066   9.794   9.799
 6758W        W14067  12.477   8.855   7.385
 6759W        W14068   3.688   0.740   0.257
 6760W        W14069   9.055   9.766   8.846
 6761W        W14070   4.658   6.450   6.944
 6762W        W14071   1.727   8.341   7.887
 6763W        W14072  14.409   9.323   0.723
 6764W        W14073  11.468   4.531   7.866
 6765W        W14074   4.181   0.257   8.343
 6766W        W14075   7.595   8.366   0.275
 6767W        W14076  15.873   8.837   8.342
 6768W        W14077   9.540   5.517   6.905
 6769W        W14078  14.394   3.099   6.461
 6770W        W14079  13.454   0.720   6.456
 6771W        W14080  15.881   9.799   0.760
 6772W        W14081  15.393   3.611   7.879
 6773W        W14082   3.676   0.246   9.775
 6774W        W14083  13.435   2.169   9.331
 6775W        W14084  17.811   5.519   9.290
 6776W        W14085   3.219   5.012   0.717
 6777W        W14086  17.342   7.905   7.403
 6778W        W14087   0.773   3.104   8.373
 6779W        W14088   1.739   3.609   8.849
 6780W        W14089  19.292   6.949   0.737
 6781W        W14090  12.000   5.010   6.919
 6782W        W14091   9.045   4.053   6.445
 6783W        W14092  13.416   8.812   9.779
 6784W        W14093   3.670   4.567   6.465
 6785W        W14094   3.704   8.379   6.927
 6786W        W14095  10.512   3.099   0.247
 6787W        W14096   1.727   7.404   0.735
 6788W        W14097  15.396   2.171   8.848
 6789W        W14098   7.581   6.946   6.454
 6790W        W14099   1.222   6.919   9.321
 6791W        W14100   3.182   0.739   5.991
 6792W        W14101  13.446   6.928   9.330
 6793W        W14102   0.266   2.657   0.257
 6794W        W14103  10.520   7.396   6.941
 6795W        W14104   8.538   1.201   7.401
 6796W        W14105  15.894   0.253   9.308
 6797W        W14106   6.616   3.110   6.458
 6798W        W14107   9.061   8.851   0.759
 6799W        W14108  12.481   9.763   8.360
 6800W        W14109   0.733   2.659   6.924
 6801W        W14110  12.947   5.521   7.392
 6802W        W14111   0.250   7.887   0.252
 6803W        W14112   2.689   8.373   7.393
 6804W        W14113  12.456   5.977   0.741
 6805W        W14114   7.091   9.800   0.248
 6806W        W14115   2.698   3.581   7.385
 6807W        W14116   0.740   9.803   7.422
 6808W        W14117   7.576   9.322   9.289
 6809W        W14118  15.413   6.433   7.883
 6810W        W14119   2.722   5.998   0.284
 6811W        W14120   2.699   4.554   6.448
 6812W        W14121  17.814   5.953   7.405
 6813W        W14122  12.936   7.382   0.741
 6814W        W14123  19.792   0.752   8.346
 6815W        W14124   3.665   9.780   8.835
 6816W        W14125  16.358   4.538   8.366
 6817W        W14126  13.442   5.044   6.466
 6818W        W14127  18.806   4.071   7.874
 6819W        W14128   3.696   7.426   0.715
 6820W        W14129  12.969   9.790   8.365
 6821W        W14130   2.201   3.118   7.425
 6822W        W14131  16.364   1.234   9.311
 6823W        W14132  14.418   6.446   9.773
 6824W        W14133  16.838   5.965   9.306
 6825W        W14134  12.970   1.223   6.920
 6826W        W14135  10.498   8.822   7.868
 6827W        W14136   0.769   7.398   8.825
 6828W        W14137   7.580   1.191   7.892
 6829W        W14138   5.643   6.451   6.463
 6830W        W14139   2.726   3.574   6.906
 6831W        W14140   0.284   5.001   0.267
 6832W        W14141  16.382   9.788   8.813
 6833W        W14142   1.237   6.453   6.434
 6834W        W14143   2.685   4.547   8.826
 6835W        W14144  10.516   5.504   6.911
 6836W        W14145  13.948   0.759   6.929
 6837W        W14146   5.167   3.108   8.850
 6838W        W14147   1.715   6.446   8.354
 6839W        W14148  18.322   1.210   9.304
 6840W        W14149  11.022   5.022   0.717
 6841W        W14150  18.821   3.592   7.405
 6842W        W14151  10.028   1.695   8.365
 6843W        W14152   7.095   8.822   0.740
 6844W        W14153   0.282   9.295   0.728
 6845W        W14154   8.090   5.955   9.319
 6846W        W14155   1.254   0.268   0.753
 6847W        W14156  12.453   9.333   8.824
 6848W        W14157   6.121   8.839   9.776
 6849W        W14158   9.552   6.931   8.850
 6850W        W14159   0.763   4.563   9.312
 6851W        W14160  10.494   5.041   7.417
 6852W        W14161  13.461   6.448   7.897
 6853W        W14162  16.378   9.762   9.772
 6854W        W14163   3.672   5.989   8.373
 6855W        W14164   0.748   6.920   8.847
 6856W        W14165  12.445   8.849   6.934
 6857W        W14166  11.471   1.218   7.872
 6858W        W14167   4.152   1.211   0.730
 6859W        W14168  17.838   2.162   7.389
 6860W        W14169  18.825   8.855   0.735
 6861W        W14170   6.597   1.201   9.787
 6862W        W14171   1.229   0.268   6.430
 6863W        W14172  17.824   5.965   0.259
 6864W        W14173   8.097   3.126   9.295
 6865W        W14174  18.320   8.366   7.882
 6866W        W14175   5.164   2.153   0.254
 6867W        W14176  19.309   7.859   7.407
 6868W        W14177   1.734   3.106   0.759
 6869W        W14178  11.485   0.738   0.240
 6870W        W14179   2.725   2.186   8.830
 6871W        W14180   9.031   5.954   0.734
 6872W        W14181  12.969   6.465   0.736
 6873W        W14182   8.578   3.577   6.463
 6874W        W14183   5.640   7.874   0.746
 6875W        W14184   5.651   7.405   0.721
 6876W        W14185  15.866   5.991   7.409
 6877W        W14186   2.206   0.265   8.348
 6878W        W14187  16.833   5.507   7.387
 6879W        W14188  12.973   1.685   8.338
 6880W        W14189  13.931   0.245   0.245
 6881W        W14190   5.658   4.064   7.427
 6882W        W14191  14.880   1.223   0.258
 6883W        W14192   7.586   7.869   7.407
 6884W        W14193   3.683   3.588   0.760
 6885W        W14194   5.151   6.914   9.296
 6886W        W14195   3.707   2.628   0.276
 6887W        W14196  19.792   7.387   0.740
 6888W        W14197  13.421   7.397   6.905
 6889W        W14198  19.276   5.012   7.872
 6890W        W14199  12.444   1.234   0.257
 6891W        W14200  17.825   3.598   6.458
 6892W        W14201   8.052   8.369   8.351
 6893W        W14202   5.137   5.510   0.271
 6894W        W14203  15.862   4.049   5.991
 6895W        W14204  14.407   0.750   6.918
 6896W        W14205   6.611   0.240   8.370
 6897W        W14206  17.331   5.040   7.859
 6898W        W14207   9.063   5.497   7.865
 6899W        W14208   3.679   0.272   8.341
 6900W        W14209   8.076   7.898   8.334
 6901W        W14210  19.790   3.131   9.295
 6902W        W14211  17.834   2.168   0.274
 6903W        W14212   6.111   7.869   7.862
 6904W        W14213  17.360   0.723   9.764
 6905W        W14214  14.428   0.758   9.296
 6906W        W14215   7.096   4.534   8.845
 6907W        W14216   1.241   4.535   6.921
 6908W        W14217  11.476   4.080   0.742
 6909W        W14218  11.966   7.384   6.943
 6910W        W14219   0.743   0.244   5.973
 6911W        W14220  16.837   3.136   9.325
 6912W        W14221   8.064   8.343   9.789
 6913W        W14222  15.372   5.509   7.901
 6914W        W14223   5.134   7.392   9.783
 6915W        W14224   0.292   5.488   8.371
 6916W        W14225  15.857   7.894   6.927
 6917W        W14226   9.532   3.609   8.823
 6918W        W14227   7.117   2.620   8.350
 6919W        W14228   1.268   5.483   6.933
 6920W        W14229   5.617   8.847   9.304
 6921W        W14230  10.517   3.617   0.262
 6922W        W14231   3.178   9.307   7.411
 6923W        W14232   3.677   2.164   6.918
 6924W        W14233   5.647   7.387   6.938
 6925W        W14234  16.842   6.432   6.457
 6926W        W14235   0.280   4.525   7.399
 6927W        W14236   7.083   5.483   0.752
 6928W        W14237  19.289   8.848   8.842
 6929W        W14238  18.815   6.442   8.349
 6930W        W14239   2.231   8.375   7.407
 6931W        W14240   9.037   5.963   9.775
 6932W        W14241  16.385   7.383   9.807
 6933W        W14242   5.149   6.920   9.806
 6934W        W14243  11.009   7.386   6.473
 6935W        W14244  15.880   2.145   8.351
 6936W        W14245   6.608   2.628   6.905
 6937W        W14246   4.155   1.215   6.933
 6938W        W14247   1.732   8.835   8.364
 6939W        W14248   6.599   2.622   8.361
 6940W        W14249  14.426   3.138   8.853
 6941W        W14250  13.928   9.767   8.849
 6942W        W14251  10.021   0.261   6.435
 6943W        W14252   1.244   1.193   0.760
 6944W        W14253   1.248   0.280   6.932
 6945W        W14254  11.989   5.999   6.450
 6946W        W14255  18.313   5.028   9.808
 6947W        W14256   1.750   4.060   7.881
 6948W        W14257  13.434   3.108   7.894
 6949W        W14258   3.674   0.746   5.985
 6950W        W14259  13.440   0.251   0.749
 6951W        W14260   1.246   1.697   8.834
 6952W        W14261   8.569   9.293   9.324
 6953W        W14262   8.075   6.915   0.250
 6954W        W14263   0.777   3.601   6.000
 6955W        W14264   9.539   3.107   0.252
 6956W        W14265   6.588   3.127   0.742
 6957W        W14266   0.768   6.446   6.434
 6958W        W14267   9.525   2.651   8.372
 6959W        W14268   1.228   1.212   6.938
 6960W        W14269  10.014   2.162   1.198
 6961W        W14270   8.566   2.181   7.396
 6962W        W14271   6.139   0.733   1.225
 6963W        W14272  15.893   2.148   0.752
 6964W        W14273  13.443   6.450   9.314
 6965W        W14274  19.779   8.334   6.468
 6966W        W14275  18.824   7.421   9.780
 6967W        W14276   8.080   5.494   8.823
 6968W        W14277   2.235   4.556   9.313
 6969W        W14278  10.984   3.572   0.731
 6970W        W14279  15.368   2.663   6.455
 6971W        W14280   2.225   4.093   0.746
 6972W        W14281  13.456   7.383   7.895
 6973W        W14282  15.376   5.522   8.815
 6974W        W14283   2.215   8.366   7.900
 6975W        W14284   5.655   5.486   0.729
 6976W        W14285  12.933   0.273   8.335
 6977W        W14286  12.480   3.142   7.882
 6978W        W14287   7.574   9.807   9.326
 6979W        W14288   3.207   0.727   7.895
 6980W        W14289   0.769   1.685   0.732
 6981W        W14290  17.830   6.450   7.901
 6982W        W14291  17.819   9.765   0.744
 6983W        W14292  19.308   3.575   9.330
 6984W        W14293  11.470   6.912   1.234
 6985W        W14294  11.495   5.483   9.299
 6986W        W14295   2.717   7.409   9.787
 6987W        W14296   0.758   0.761   9.776
 6988W        W14297  13.927   5.996   9.778
 6989W        W14298   2.705   0.281   6.908
 6990W        W14299  11.489   1.198   9.780
 6991W        W14300  10.984   9.786   9.293
 6992W        W14301  14.884   1.684   0.253
 6993W        W14302   7.603   0.269   9.803
 6994W        W14303  14.911   1.697   5.998
 6995W        W14304  19.315   6.948   8.376
 6996W        W14305   5.653   9.310   7.859
 6997W        W14306  13.423   9.329   7.868
 6998W        W14307   1.255   4.078   0.267
 6999W        W14308   7.083   5.955   0.747
 7000W        W14309  11.495   9.289   6.949
 7001W        W14310   4.162   0.246   0.238
 7002W        W14311  19.796   6.447   0.721
 7003W        W14312  15.384   5.967   7.424
 7004W        W14313  10.045   9.806   0.725
 7005W        W14314   2.217   9.304   9.300
 7006W        W14315  11.472   9.306   8.847
 7007W        W14316  14.402   0.238   6.941
 7008W        W14317  15.872   9.297   9.307
 7009W        W14318   7.119   0.717   9.806
 7010W        W14319  12.461   0.754   9.327
 7011W        W14320   0.742   2.666   7.898
 7012W        W14321   4.656   0.272   6.448
 7013W        W14322  14.890   9.317   9.802
 7014W        W14323  13.923   0.716   8.377
 7015W        W14324  19.776   9.795   8.855
 7016W        W14325   9.536   5.979   6.950
 7017W        W14326  16.867   4.532   9.796
 7018W        W14327  17.339   3.596   8.381
 7019W        W14328   2.711   4.051   8.372
 7020W        W14329  15.901   1.201   9.807
 7021W        W14330   1.230   3.612   9.796
 7022W        W14331   4.653   1.198   7.901
 7023W        W14332  12.933   6.473   7.859
 7024W        W14333  12.966   7.409   9.322
 7025W        W14334  11.497   5.047   0.719
 7026W        W14335  10.529   3.120   6.440
 7027W        W14336  14.917   3.102   0.718
 7028W        W14337  14.914   3.588   6.438
 7029W        W14338  12.974   5.000   6.949
 7030W        W14339  17.813   3.102   7.421
 7031W        W14340   6.109   2.190   7.891
 7032W        W14341  13.427   2.161   8.822
 7033W        W14342  14.426   6.445   6.906
 7034W        W14343   4.162   6.948   7.876
 7035W        W14344  13.417   4.571   0.734
 7036W        W14345  12.446   4.551   5.975
 7037W        W14346   7.104   1.697   6.935
 7038W        W14347  10.023   5.505   6.430
 7039W        W14348  13.916   2.155   8.366
 7040W        W14349   2.233   4.080   8.360
 7041W        W14350  19.315   7.399   6.934
 7042W        W14351   4.657   3.105   9.315
 7043W        W14352   9.050   5.996   5.990
 7044W        W14353   8.069   7.428   0.243
 7045W        W14354   7.589   1.195   9.304
 7046W        W14355   3.700   6.951   0.753
 7047W        W14356   1.739   7.885   8.349
 7048W        W14357  12.936   6.466   6.925
 7049W        W14358   5.612   9.326   8.381
 7050W        W14359  11.982   0.275   9.805
 7051W        W14360  15.880   6.944   0.745
 7052W        W14361  13.428   5.995   8.366
 7053W        W14362  14.436   6.467   8.365
 7054W        W14363  18.818   4.536   7.382
 7055W        W14364  17.323   6.920   9.799
 7056W        W14365  16.864   0.262   8.376
 7057W        W14366  13.917   8.844   9.311
 7058W        W14367   5.125   5.515   0.757
 7059W        W14368  16.384   8.339   9.775
 7060W        W14369  15.405   8.363   9.322
 7061W        W14370  18.807   3.601   7.890
 7062W        W14371   6.127   1.681   9.323
 7063W        W14372  13.903   1.670   5.994
 7064W        W14373   7.609   0.249   6.948
 7065W        W14374  10.511   1.225   9.299
 7066W        W14375  12.464   5.963   8.850
 7067W        W14376   1.242   0.724   7.883
 7068W        W14377   8.542   8.852   9.809
 7069W        W14378   7.606   4.552   7.868
 7070W        W14379   7.094   3.117   6.457
 7071W        W14380   2.224   9.801   9.794
 7072W        W14381   7.100   2.641   7.402
 7073W        W14382   1.728   3.586   7.387
 7074W        W14383  17.332   2.647   6.908
 7075W        W14384   5.628   1.707   8.352
 7076W        W14385  13.433   6.455   7.408
 7077W        W14386  14.438   5.966   9.325
 7078W        W14387   5.615   6.454   0.244
 7079W        W14388   3.665   1.237   7.412
 7080W        W14389  11.502   5.986   1.208
 7081W        W14390   3.659   8.823   9.308
 7082W        W14391  14.882   9.288   6.911
 7083W        W14392  11.987   1.231   7.880
 7084W        W14393  18.321   0.746   6.910
 7085W        W14394   9.065   9.317   8.818
 7086W        W14395   1.238   3.610   8.849
 7087W        W14396   0.251   7.889   9.796
 7088W        W14397  11.482   5.518   7.409
 7089W        W14398   4.637   8.830   9.773
 7090W        W14399   5.143   4.052   7.867
 7091W        W14400  17.332   7.895   6.924
 7092W        W14401   5.170   5.014   6.947
 7093W        W14402  13.947   2.174   0.265
 7094W        W14403  12.458   0.720   0.285
 7095W        W14404  10.522   5.514   8.357
 7096W        W14405   6.102   5.514   6.952
 7097W        W14406  16.359   7.383   5.960
 7098W        W14407  13.455   2.189   6.432
 7099W        W14408   6.109   7.890   9.794
 7100W        W14409  17.354   1.220   7.418
 7101W        W14410  11.008   8.838   6.933
 7102W        W14411   6.121   8.849   0.272
 7103W        W14412  11.964   3.600   8.381
 7104W        W14413  16.842   8.810   0.254
 7105W        W14414  13.928   1.228   0.751
 7106W        W14415  14.888   6.922   6.926
 7107W        W14416  15.882   7.395   0.749
 7108W        W14417   4.669   7.411   0.751
 7109W        W14418   3.214   3.136   9.786
 7110W        W14419  15.869   6.448   8.811
 7111W        W14420  15.892   7.881   9.768
 7112W        W14421  13.949   1.217   6.458
 7113W        W14422   5.171   2.651   7.393
 7114W        W14423   9.516   3.575   5.998
 7115W        W14424   2.685   1.680   9.296
 7116W        W14425   7.096   9.305   7.414
 7117W        W14426  13.930   2.620   6.432
 7118W        W14427   8.069   8.839   6.441
 7119W        W14428  17.853   7.401   9.329
 7120W        W14429   3.688   7.881   8.359
 7121W        W14430  15.876   6.938   9.787
 7122W        W14431  12.476   7.401   8.820
 7123W        W14432  12.940   3.108   8.353
 7124W        W14433  10.533   6.908   6.430
 7125W        W14434   6.620   9.792   6.906
 7126W        W14435  10.989   8.339   7.858
 7127W        W14436  11.984   1.193   7.409
 7128W        W14437  15.867   7.885   0.252
 7129W        W14438  15.899   4.081   8.362
 7130W        W14439  17.850   7.409   6.470
 7131W        W14440   0.259   6.450   6.936
 7132W        W14441   5.623   5.962   7.896
 7133W        W14442  15.412   3.100   8.355
 7134W        W14443  18.303   0.741   8.363
 7135W        W14444  16.386   5.487   0.727
 7136W        W14445   6.144   2.149   6.440
 7137W        W14446  18.336   3.584   0.750
 7138W        W14447  15.394   5.001   7.389
 7139W        W14448  12.454   1.688   0.747
 7140W        W14449   1.222   5.505   0.276
 7141W        W14450   5.127   7.383   0.265
 7142W        W14451  17.834   5.494   0.716
 7143W        W14452  19.764   9.314   7.885
 7144W        W14453   3.195   5.001   0.266
 7145W        W14454   6.612   7.864   7.408
 7146W        W14455   2.685   3.105   6.917
 7147W        W14456   3.214   9.329   6.924
 7148W        W14457   4.162   0.270   9.326
 7149W        W14458   6.107   1.211   0.719
 7150W        W14459  14.424   7.395   6.459
 7151W        W14460   7.608   2.651   9.787
 7152W        W14461   5.625   7.872   8.811
 7153W        W14462  16.843   2.651   9.765
 7154W        W14463  10.003   4.078   7.888
 7155W        W14464   5.159   4.566   6.452
 7156W        W14465   8.540   0.257   7.863
 7157W        W14466   2.703   6.937   7.858
 7158W        W14467   1.722   3.136   5.976
 7159W        W14468  15.870   2.635   5.961
 7160W        W14469   0.259   1.693   0.756
 7161W        W14470   9.056   3.617   8.343
 7162W        W14471   6.614   9.313   8.841
 7163W        W14472   8.544   2.664   6.950
 7164W        W14473   5.167   4.085   7.398
 7165W        W14474  19.783   1.675   0.240
 7166W        W14475   0.251   8.339   5.987
 7167W        W14476  16.836   0.238   9.301
 7168W        W14477  19.310   0.283   9.315
 7169W        W14478   0.257   6.454   9.783
 7170W        W14479   1.224   5.996   0.272
 7171W        W14480  18.308   4.567   7.407
 7172W        W14481  16.373   1.705   9.305
 7173W        W14482  12.948   7.900   9.314
 7174W        W14483   8.553   6.934   0.724
 7175W        W14484   4.670   5.974   9.306
 7176W        W14485  10.500   0.281   8.825
 7177W        W14486  19.287   3.107   8.360
 7178W        W14487  14.897   9.798   6.460
 7179W        W14488   5.142   0.751   7.884
 7180W        W14489   9.538   0.258   8.376
 7181W        W14490  13.938   8.819   5.980
 7182W        W14491  15.391   9.802   0.745
 7183W        W14492  11.479   9.768   6.473
 7184W        W14493   1.256   0.745   5.993
 7185W        W14494  16.373   0.239   0.251
 7186W        W14495   0.248   2.624   9.299
 7187W        W14496   3.685   9.317   7.888
 7188W        W14497  12.962   7.423   0.260
 7189W        W14498  18.787   7.389   7.383
 7190W        W14499   3.204   6.440   5.963
 7191W        W14500  10.022   5.983   8.840
 7192W        W14501   4.657   4.544   0.259
 7193W        W14502  16.876   2.650   6.942
 7194W        W14503  12.463   4.545   9.781
 7195W        W14504   7.121   9.304   8.845
 7196W        W14505  11.472   8.822   8.373
 7197W        W14506   6.598   5.954   8.847
 7198W        W14507   7.605   8.373   8.343
 7199W        W14508  14.416   4.064   6.910
 7200W        W14509   1.749   7.894   9.326
 7201W        W14510   7.074   5.986   9.772
 7202W        W14511   2.205   8.356   6.936
 7203W        W14512  11.492   9.764   9.299
 7204W        W14513  15.388   1.213   0.241
 7205W        W14514  17.807   9.294   6.927
 7206W        W14515  14.906   6.452   0.727
 7207W        W14516  17.843   5.033   9.320
 7208W        W14517  15.882   5.489   8.814
 7209W        W14518  18.797   9.784   6.466
 7210W        W14519   3.690   7.409   9.310
 7211W        W14520   4.671   9.298   7.889
 7212W        W14521   3.215   5.025   6.908
 7213W        W14522  17.845   1.222   9.312
 7214W        W14523  11.502   5.974   9.323
 7215W        W14524   6.615   5.521   0.729
 7216W        W14525   2.690   8.337   6.912
 7217W        W14526  19.783   0.717   0.249
 7218W        W14527  18.815   7.897   8.368
 7219W        W14528   4.676   8.827   0.726
 7220W        W14529   1.749   1.191   7.881
 7221W        W14530  17.849   9.790   7.864
 7222W        W14531   4.165   6.445   8.823
 7223W        W14532   0.749   6.924   6.469
 7224W        W14533   4.681   5.977   7.403
 7225W        W14534   5.153   6.473   8.339
 7226W        W14535  14.915   1.229   6.448
 7227W        W14536  17.825   1.688   6.941
 7228W        W14537  11.502   7.889   9.294
 7229W        W14538   4.673   5.516   7.394
 7230W        W14539   5.137   2.647   7.886
 7231W        W14540   7.573   2.640   9.330
 7232W        W14541  10.532   2.174   8.845
 7233W        W14542  15.394   5.478   7.422
 7234W        W14543  12.000   0.722   6.475
 7235W        W14544  13.922   3.607   0.249
 7236W        W14545   1.226   9.290   6.432
 7237W        W14546   5.612   2.622   5.979
 7238W        W14547  11.493   9.775   7.400
 7239W        W14548   4.642   8.356   0.760
 7240W        W14549  10.535   1.698   0.250
 7241W        W14550  14.397   0.274   8.358
 7242W        W14551   1.738   9.305   0.751
 7243W        W14552  12.450   9.289   0.277
 7244W        W14553  19.765   2.662   8.372
 7245W        W14554   5.166   9.808   6.455
 7246W        W14555  18.303   6.443   7.416
 7247W        W14556  11.007   7.884   6.922
 7248W        W14557   0.277   5.991   5.988
 7249W        W14558   9.557   5.035   8.375
 7250W        W14559  16.872   4.532   9.312
 7251W        W14560   4.161   3.599   9.773
 7252W        W14561   9.547   4.535   6.943
 7253W        W14562  16.857   7.894   7.423
 7254W        W14563  14.910   9.794   0.275
 7255W        W14564  18.802   1.225   6.936
 7256W        W14565   1.718   9.316   0.274
 7257W        W14566   7.083   0.760   0.267
 7258W        W14567  17.324   6.919   6.909
 7259W        W14568   5.651   4.558   0.715
 7260W        W14569  10.998   9.773   7.879
 7261W        W14570  18.326   3.602   0.238
 7262W        W14571  16.848   3.608   0.726
 7263W        W14572  18.334   3.109   6.929
 7264W        W14573  19.762   7.415   6.922
 7265W        W14574   5.613   0.724   7.898
 7266W        W14575  13.452   9.794   9.782
 7267W        W14576  10.978   7.426   6.916
 7268W        W14577  16.357   2.642   7.899
 7269W        W14578  12.961   1.671   0.729
 7270W        W14579  19.298   7.385   0.284
 7271W        W14580  12.933   9.783   6.945
 7272W        W14581   6.622   7.417   0.751
 7273W        W14582   8.098   1.214   9.800
 7274W        W14583  16.359   0.243   8.358
 7275W        W14584   5.632   9.303   0.281
 7276W        W14585  15.857   3.125   6.435
 7277W        W14586  18.793   2.181   9.803
 7278W        W14587  15.871   5.507   6.440
 7279W        W14588  11.999   9.803   8.340
 7280W        W14589  12.476   6.934   0.744
 7281W        W14590   5.133   3.578   9.803
 7282W        W14591   1.730   7.389   0.274
 7283W        W14592   7.588   5.484   9.766
 7284W        W14593  13.454   5.040   8.335
 7285W        W14594  14.407   5.965   7.413
 7286W        W14595   2.233   5.481   9.773
 7287W        W14596   2.242   2.153   0.740
 7288W        W14597   1.743   1.209   9.307
 7289W        W14598   4.648   1.207   5.955
 7290W        W14599  11.471   0.253   5.988
 7291W        W14600   3.683   0.255   7.411
 7292W        W14601  17.363   5.971   8.855
 7293W        W14602  13.448   1.214   8.344
 7294W        W14603   0.768   6.462   8.833
 7295W        W14604   7.598   8.839   9.774
 7296W        W14605  12.467   4.562   6.933
 7297W        W14606  18.827   0.716   5.967
 7298W        W14607  17.351   2.184   7.902
 7299W        W14608  17.360   1.703   7.871
 7300W        W14609  19.277   9.797   0.727
 7301W        W14610  13.420   0.735   7.872
 7302W        W14611   2.237   7.880   7.874
 7303W        W14612   0.747   5.040   9.299
 7304W        W14613  16.349   7.420   9.317
 7305W        W14614   9.064   4.541   0.760
 7306W        W14615   9.553   5.990   9.793
 7307W        W14616  18.321   5.482   6.444
 7308W        W14617  11.954   4.556   1.197
 7309W        W14618   5.648   8.836   7.385
 7310W        W14619  14.419   2.630   9.302
 7311W        W14620   9.545   3.105   0.739
 7312W        W14621   2.232   2.635   9.297
 7313W        W14622  14.893   7.427   7.404
 7314W        W14623  13.923   7.382   9.786
 7315W        W14624  16.389   4.525   0.742
 7316W        W14625  18.307   5.008   0.272
 7317W        W14626  17.847   2.162   0.751
 7318W        W14627  18.335   7.895   5.977
 7319W        W14628  13.919   3.597   9.774
 7320W        W14629  12.467   2.162   9.289
 7321W        W14630   2.730   5.035   9.320
 7322W        W14631   5.631   7.385   6.465
 7323W        W14632  11.000   6.441   0.261
 7324W        W14633  12.481   3.614   9.783
 7325W        W14634   9.047   7.390   6.474
 7326W        W14635   1.255   5.038   8.812
 7327W        W14636  10.516   2.641   7.426
 7328W        W14637   0.738   5.506   8.815
 7329W        W14638  13.927   9.324   7.864
 7330W        W14639   7.585   0.726   0.759
 7331W        W14640   5.143   7.865   0.735
 7332W        W14641   3.193   1.200   9.316
 7333W        W14642   1.246   8.810   6.440
 7334W        W14643  11.995   5.991   8.844
 7335W        W14644  12.948   4.070   9.291
 7336W        W14645   7.565   9.323   8.827
 7337W        W14646   3.219   6.929   8.361
 7338W        W14647  13.448   9.315   6.907
 7339W        W14648  15.879   5.953   7.894
 7340W        W14649   0.733   5.523   7.391
 7341W        W14650   3.664   3.140   7.423
 7342W        W14651   5.651   5.479   9.332
 7343W        W14652   9.059   4.536   9.796
 7344W        W14653   7.111   2.169   6.935
 7345W        W14654   8.097   4.084   9.310
 7346W        W14655  16.346   3.615   9.785
 7347W        W14656   5.167   2.161   6.924
 7348W        W14657  18.813   8.846   8.373
 7349W        W14658   1.261   9.326   0.250
 7350W        W14659  13.948   7.398   8.364
 7351W        W14660   9.025   2.176   8.341
 7352W        W14661   0.764   0.275   8.849
 7353W        W14662  11.022   5.508   7.389
 7354W        W14663   8.077   9.325   9.777
 7355W        W14664  18.817   9.797   0.270
 7356W        W14665   9.055   1.677   0.264
 7357W        W14666   3.178   0.725   6.947
 7358W        W14667  13.424   0.261   9.330
 7359W        W14668  12.974   8.341   8.345
 7360W        W14669  18.307   0.264   7.871
 7361W        W14670   2.202   5.486   7.888
 7362W        W14671  10.508   4.086   6.474
 7363W        W14672  18.296   3.127   9.327
 7364W        W14673   8.088   5.517   6.941
 7365W        W14674   6.120   3.107   6.469
 7366W        W14675   7.101   2.185   8.373
 7367W        W14676   1.267   8.353   6.917
 7368W        W14677  10.032   9.304   0.729
 7369W        W14678   8.558   7.902   7.420
 7370W        W14679   1.725   0.722   7.897
 7371W        W14680   5.628   7.881   8.378
 7372W        W14681   9.543   0.746   0.261
 7373W        W14682   2.729   7.391   0.716
 7374W        W14683   2.726   0.758   6.918
 7375W        W14684  16.834   5.965   5.959
 7376W        W14685   1.255   1.229   7.390
 7377W        W14686   4.154   8.368   8.853
 7378W        W14687   1.225   6.434   8.836
 7379W        W14688  13.905   0.285   6.927
 7380W        W14689   9.039   8.817   8.849
 7381W        W14690  15.891   7.891   0.750
 7382W        W14691  14.398   2.188   6.917
 7383W        W14692  15.380   7.405   6.945
 7384W        W14693   7.111   5.011   8.851
 7385W        W14694  12.460   0.285   1.199
 7386W        W14695  15.400   0.734   0.723
 7387W        W14696  18.783   8.333   0.735
 7388W        W14697   9.033   9.782   8.365
 7389W        W14698  14.439   3.112   5.976
 7390W        W14699   0.249   4.083   9.799
 7391W        W14700  14.432   2.654   8.849
 7392W        W14701  17.331   8.378   7.403
 7393W        W14702  19.799   5.965   7.384
 7394W        W14703  13.945   0.247   9.297
 7395W        W14704   4.156   7.416   0.279
 7396W        W14705  14.880   1.676   9.290
 7397W        W14706  18.331   5.999   0.271
 7398W        W14707  16.355   3.606   0.261
 7399W        W14708  10.008   3.095   0.723
 7400W        W14709   2.227   6.455   8.819
 7401W        W14710  18.784   2.658   6.433
 7402W        W14711  14.919   8.355   5.970
 7403W        W14712  10.511   3.111   7.386
 7404W        W14713   5.128   6.432   8.849
 7405W        W14714  13.925   5.481   8.364
 7406W        W14715  14.416   5.952   8.371
 7407W        W14716   9.051   5.013   7.392
 7408W        W14717   4.189   7.886   6.948
 7409W        W14718   9.065   6.938   5.998
 7410W        W14719   2.241   3.586   9.785
 7411W        W14720  11.967   4.086   7.413
 7412W        W14721  10.488   2.637   6.921
 7413W        W14722   2.729   7.426   6.464
 7414W        W14723  11.504   3.117   7.872
 7415W        W14724   7.113   6.940   8.846
 7416W        W14725  16.351   6.473   8.375
 7417W        W14726   9.062   2.664   0.258
 7418W        W14727  12.969   8.349   9.771
 7419W        W14728   9.519   2.662   9.309
 7420W        W14729  11.958   0.734   6.919
 7421W        W14730   0.273   7.872   8.811
 7422W        W14731  10.510   6.908   7.894
 7423W        W14732  11.497   9.771   6.927
 7424W        W14733  12.936   5.044   6.456
 7425W        W14734  14.886   6.941   8.360
 7426W        W14735  18.296   9.794   7.884
 7427W        W14736   3.182   5.983   9.292
 7428W        W14737   3.205   7.904   5.975
 7429W        W14738   1.731   8.826   9.332
 7430W        W14739  19.290   0.736   7.884
 7431W        W14740   9.042   1.681   9.326
 7432W        W14741   7.119   7.385   6.438
 7433W        W14742   3.188   7.877   0.271
 7434W        W14743  11.993   5.964   8.365
 7435W        W14744   5.166   9.789   9.333
 7436W        W14745  15.870   2.637   9.766
 7437W        W14746   4.194   8.811   6.456
 7438W        W14747  18.818   4.061   6.431
 7439W        W14748   8.062   0.261   7.412
 7440W        W14749  10.045   3.594   6.934
 7441W        W14750  16.352   1.693   5.954
 7442W        W14751  19.775   7.384   6.457
 7443W        W14752   1.267   6.918   6.457
 7444W        W14753  13.915   8.848   8.356
 7445W        W14754  13.910   6.471   8.822
 7446W        W14755  12.968   4.051   7.420
 7447W        W14756   5.639   4.067   8.815
 7448W        W14757  12.460   0.751   6.434
 7449W        W14758  16.363   3.115   6.441
 7450W        W14759   3.183   3.583   8.836
 7451W        W14760  10.996   0.246   0.756
 7452W        W14761  16.350   9.309   7.394
 7453W        W14762   3.191   0.740   0.260
 7454W        W14763   6.101   7.420   0.724
 7455W        W14764   4.187   2.637   7.900
 7456W        W14765  18.798   2.154   8.347
 7457W        W14766   6.106   3.572   9.326
 7458W        W14767  12.459   7.382   9.801
 7459W        W14768   2.720   4.535   9.776
 7460W        W14769   6.616   1.697   7.903
 7461W        W14770   9.518   2.661   9.763
 7462W        W14771  16.870   1.197   9.767
 7463W        W14772   9.535   3.113   7.426
 7464W        W14773  14.893   5.037   0.242
 7465W        W14774  15.389   7.867   0.271
 7466W        W14775  18.821   5.966   0.733
 7467W        W14776  12.461   1.699   6.472
 7468W        W14777  11.976   6.942   8.813
 7469W        W14778  16.868   7.875   6.437
 7470W        W14779  16.384   3.592   8.361
 7471W        W14780   8.050   1.227   8.379
 7472W        W14781   5.647   3.131   6.928
 7473W        W14782  10.978   0.279   8.813
 7474W        W14783  12.471   2.664   0.256
 7475W        W14784  15.894   6.435   7.415
 7476W        W14785   6.610   8.353   8.371
 7477W        W14786  13.935   2.621   7.392
 7478W        W14787   3.193   3.576   9.308
 7479W        W14788   9.028   0.723   6.447
 7480W        W14789  10.032   1.215   6.948
 7481W        W14790   4.190   7.894   9.809
 7482W        W14791   8.582   0.730   6.952
 7483W        W14792  15.894   5.989   8.349
 7484W        W14793  14.888   0.264   9.302
 7485W        W14794   7.108   8.341   7.899
 7486W        W14795  12.927   4.085   7.884
 7487W        W14796  17.820   8.857   6.443
 7488W        W14797   5.623   8.357   8.842
 7489W        W14798  16.344   2.187   7.893
 7490W        W14799  10.014   0.281   9.767
 7491W        W14800   4.639   2.647   0.760
 7492W        W14801   1.236   8.348   8.827
 7493W        W14802   8.080   2.621   6.437
 7494W        W14803  19.283   7.882   0.727
 7495W        W14804  16.357   2.658   7.393
 7496W        W14805   8.076   5.522   7.891
 7497W        W14806  10.035   4.570   0.753
 7498W        W14807  13.935   4.545   9.304
 7499W        W14808  17.844   1.685   8.363
 7500W        W14809  12.467   8.361   8.350
 7501W        W14810  14.406   2.643   6.462
 7502W        W14811  12.471   9.802   7.858
 7503W        W14812  11.471   1.688   9.321
 7504W        W14813   8.558   4.095   6.927
 7505W        W14814   0.271   1.688   6.921
 7506W        W14815   0.267   5.972   9.319
 7507W        W14816   7.563   8.834   6.441
 7508W        W14817  14.919   6.468   8.358
 7509W        W14818  11.484   8.358   9.328
 7510W        W14819   0.289   3.126   6.945
 7511W        W14820   4.671   1.198   8.820
 7512W        W14821   6.589   9.297   6.439
 7513W        W14822   4.681   4.570   9.788
 7514W        W14823   1.266   3.596   7.878
 7515W        W14824  14.423   2.663   9.787
 7516W        W14825  13.439   4.064   0.750
 7517W        W14826  12.458   8.378   6.450
 7518W        W14827  18.327   5.994   7.881
 7519W        W14828  10.513   6.476   7.879
 7520W        W14829   7.109   9.327   8.347
 7521W        W14830  18.299   1.223   0.726
 7522W        W14831   5.645   5.041   8.851
 7523W        W14832   0.285   4.555   9.790
 7524W        W14833  14.893   7.870   0.257
 7525W        W14834   8.572   3.616   7.408
 7526W        W14835  14.422   6.926   6.942
 7527W        W14836   4.639   7.894   6.942
 7528W        W14837  10.495   3.574   8.825
 7529W        W14838  16.355   3.105   9.779
 7530W        W14839  19.775   3.123   9.771
 7531W        W14840  19.280   5.032   7.420
 7532W        W14841  12.937   6.926   9.797
 7533W        W14842   2.722   7.410   9.312
 7534W        W14843   5.170   9.806   0.735
 7535W        W14844  16.348   2.637   8.856
 7536W        W14845   6.597   3.598   0.756
 7537W        W14846   9.560   0.268   7.867
 7538W        W14847  15.395   8.357   8.380
 7539W        W14848   1.715   4.048   5.962
 7540W        W14849   0.778   4.532   0.741
 7541W        W14850  10.032   8.821   9.809
 7542W        W14851   7.089   9.786   5.966
 7543W        W14852  19.771   0.244   7.401
 7544W        W14853   2.206   5.018   6.440
 7545W        W14854  19.769   1.699   6.442
 7546W        W14855   9.538   6.450   6.444
 7547W        W14856  15.881   6.951   7.395
 7548W        W14857   4.164   2.654   9.809
 7549W        W14858   3.182   8.814   0.737
 7550W        W14859   7.600   7.889   6.920
 7551W        W14860   7.581   4.052   0.276
 7552W        W14861   1.242   7.863   8.367
 7553W        W14862  18.808   6.951   8.341
 7554W        W14863  10.524   2.144   7.397
 7555W        W14864   1.732   6.464   6.439
 7556W        W14865  14.405   8.339   9.794
 7557W        W14866   7.113   3.132   9.305
 7558W        W14867   7.075   7.416   5.977
 7559W        W14868  14.411   6.929   0.737
 7560W        W14869   5.638   0.255   9.791
 7561W        W14870  12.479   5.034   8.855
 7562W        W14871   9.518   0.720   8.336
 7563W        W14872   8.571   4.082   0.744
 7564W        W14873   3.677   4.542   0.257
 7565W        W14874   6.109   0.756   7.417
 7566W        W14875  18.789   2.176   6.930
 7567W        W14876  12.464   9.774   9.787
 7568W        W14877  10.976   5.004   5.970
 7569W        W14878  13.442   9.803   8.342
 7570W        W14879   7.580   7.902   0.272
 7571W        W14880  11.487   3.606   7.399
 7572W        W14881   6.109   5.978   8.348
 7573W        W14882  19.272   0.718   6.451
 7574W        W14883  18.322   9.783   8.373
 7575W        W14884   3.195   1.673   0.736
 7576W        W14885   3.176   4.048   7.886
 7577W        W14886  15.894   9.320   8.819
 7578W        W14887   9.559   1.682   7.422
 7579W        W14888  12.456   7.413   0.279
 7580W        W14889  15.901   8.856   0.731
 7581W        W14890   0.762   3.572   7.901
 7582W        W14891   9.522   4.539   6.449
 7583W        W14892  17.831   1.193   5.985
 7584W        W14893  13.443   1.685   8.818
 7585W        W14894  14.892   9.321   0.259
 7586W        W14895   9.534   7.401   5.476
 7587W        W14896  18.303   7.866   0.257
 7588W        W14897   4.658   2.666   9.792
 7589W        W14898  15.401   6.476   9.770
 7590W        W14899  19.775   5.044   8.824
 7591W        W14900  17.348   0.725   6.946
 7592W        W14901   7.570   8.812   8.365
 7593W        W14902  19.268   9.298   7.417
 7594W        W14903  17.824   8.828   9.762
 7595W        W14904   0.268   5.493   7.415
 7596W        W14905  17.326   6.460   8.373
 7597W        W14906  19.273   2.156   6.934
 7598W        W14907  12.475   0.250   9.776
 7599W        W14908   6.130   2.662   6.451
 7600W        W14909   7.080   6.474   8.821
 7601W        W14910   2.696   2.145   7.878
 7602W        W14911   0.749   5.956   9.331
 7603W        W14912  12.946   2.172   0.746
 7604W        W14913   0.274   4.067   8.826
 7605W        W14914   5.169   9.796   8.828
 7606W        W14915   5.651   8.365   5.959
 7607W        W14916  18.330   6.451   7.862
 7608W        W14917   1.262   3.116   7.874
 7609W        W14918   4.160   9.776   9.776
 7610W        W14919  13.951   5.953   8.832
 7611W        W14920  18.788   1.196   9.304
 7612W        W14921  11.019   7.390   8.364
 7613W        W14922   6.597   7.394   7.904
 7614W        W14923  10.990   1.233   5.958
 7615W        W14924   3.192   3.590   7.428
 7616W        W14925  14.907   5.015   8.837
 7617W        W14926   2.709   7.384   6.936
 7618W        W14927  10.978   3.127   6.913
 7619W        W14928   4.176   3.095   8.835
 7620W        W14929  10.030   0.248   0.261
 7621W        W14930   2.201   1.223   8.849
 7622W        W14931  19.790   2.626   9.784
 7623W        W14932   4.188   5.023   0.277
 7624W        W14933   0.759   1.712   8.847
 7625W        W14934  18.317   7.421   7.874
 7626W        W14935  15.402   9.783   7.891
 7627W        W14936   1.263   7.892   6.926
 7628W        W14937  12.444   1.711   5.972
 7629W        W14938   3.187   0.254   0.273
 7630W        W14939   6.123   0.738   8.343
 7631W        W14940  12.463   9.783   0.736
 7632W        W14941  12.457   1.710   8.824
 7633W        W14942   4.660   2.181   6.476
 7634W        W14943  14.402   2.178   0.267
 7635W        W14944   1.727   5.044   7.419
 7636W        W14945   5.647   1.676   0.731
 7637W        W14946  10.024   5.038   8.363
 7638W        W14947  11.019   1.671   7.875
 7639W        W14948  15.902   7.903   8.829
 7640W        W14949  10.025   5.970   0.734
 7641W        W14950   3.191   2.638   7.418
 7642W        W14951  12.475   4.075   9.302
 7643W        W14952  17.825   5.986   0.756
 7644W        W14953   8.091   8.846   9.332
 7645W        W14954  14.431   0.279   8.854
 7646W        W14955  14.922   6.945   9.326
 7647W        W14956  18.322   1.191   6.944
 7648W        W14957   1.235   0.719   6.459
 7649W        W14958  17.813   4.065   7.859
 7650W        W14959  10.526   5.523   7.390
 7651W        W14960  10.497   7.871   0.285
 7652W        W14961  14.895   6.939   7.899
 7653W        W14962  12.469   3.127   9.289
 7654W        W14963   9.034   1.698   7.417
 7655W        W14964  19.316   8.810   9.326
 7656W        W14965   3.673   3.129   8.358
 7657W        W14966  17.339   3.587   0.739
 7658W        W14967  16.868   4.088   9.781
 7659W        W14968  10.489   8.833   0.260
 7660W        W14969   1.261   6.924   9.774
 7661W        W14970   6.128   6.447   0.262
 7662W        W14971   4.634   3.593   9.769
 7663W        W14972  17.825   6.941   0.280
 7664W        W14973  12.449   8.816   0.729
 7665W        W14974  14.391   3.618   9.766
 7666W        W14975  19.304   2.651   0.249
 7667W        W14976  16.863   8.334   0.727
 7668W        W14977  13.934   6.935   9.771
 7669W        W14978   5.651   5.487   8.836
 7670W        W14979   6.135   9.777   8.842
 7671W        W14980  19.798   6.949   7.401
 7672W        W14981  14.889   8.335   7.407
 7673W        W14982   5.614   7.383   7.888
 7674W        W14983  12.482   0.272   6.935
 7675W        W14984   3.206   4.571   8.370
 7676W        W14985   4.645   7.879   5.953
 7677W        W14986  13.425   4.534   8.819
 7678W        W14987   0.742   8.377   7.903
 7679W        W14988   9.560   8.371   9.321
 7680W        W14989  13.449   6.914   8.361
 7681W        W14990  15.891   3.140   9.333
 7682W        W14991   0.762   0.750   6.440
 7683W        W14992  14.413   2.180   8.844
 7684W        W14993  15.410   3.138   7.386
 7685W        W14994   2.727   0.265   8.835
 7686W        W14995  17.354   9.322   8.819
 7687W        W14996   2.709   1.695   8.349
 7688W        W14997  10.515   5.987   0.755
 7689W        W14998  10.028   7.403   8.338
 7690W        W14999  12.974   5.045   0.729
 7691W        W15000   0.780   5.025   8.822
 7692W        W15001   3.692   7.863   7.392
 7693W        W15002   2.206   3.595   8.336
 7694W        W15003  15.897   9.799   0.254
 7695W        W15004  14.434   0.257   6.455
 7696W        W15005  10.533   9.323   0.748
 7697W        W15006  19.783   6.940   0.253
 7698W        W15007  14.907   9.787   7.879
 7699W        W15008   2.713   1.206   9.781
 7700W        W15009  16.848   7.871   8.371
 7701W        W15010   2.724   6.432   7.871
 7702W        W15011   7.564   3.599   8.362
 7703W        W15012   5.130   3.598   6.940
 7704W        W15013  17.330   1.217   6.910
 7705W        W15014   6.107   5.986   9.294
 7706W        W15015   0.764   5.497   8.335
 7707W        W15016  10.492   2.171   6.920
 7708W        W15017  12.952   2.182   8.378
 7709W        W15018  16.843   6.928   6.910
 7710W        W15019   2.230   7.422   6.940
 7711W        W15020   2.201   3.619   6.439
 7712W        W15021   2.725   0.750   7.887
 7713W        W15022  13.446   2.184   0.247
 7714W        W15023   1.260   6.445   7.886
 7715W        W15024   6.588   6.918   7.862
 7716W        W15025  14.410   1.238   6.948
 7717W        W15026  12.483   2.187   9.793
 7718W        W15027   7.581   4.536   5.968
 7719W        W15028   4.668   4.072   1.201
 7720W        W15029   6.616   1.699   0.267
 7721W        W15030   9.555   1.704   5.961
 7722W        W15031  15.881   1.217   7.383
 7723W        W15032   7.121   4.073   6.453
 7724W        W15033  14.403   4.550   8.839
 7725W        W15034   1.221   1.232   8.817
 7726W        W15035  16.382   5.980   0.265
 7727W        W15036   1.734   2.621   7.890
 7728W        W15037   0.292   7.866   7.410
 7729W        W15038  12.452   4.081   7.898
 7730W        W15039  11.006   4.055   6.460
 7731W        W15040  12.458   4.534   7.888
 7732W        W15041  12.945   7.418   6.438
 7733W        W15042   6.634   2.189   7.417
 7734W        W15043  19.798   5.985   8.851
 7735W        W15044   8.078   0.281   7.883
 7736W        W15045   7.100   3.117   8.819
 7737W        W15046  10.993   0.267   7.404
 7738W        W15047  12.480   8.369   0.262
 7739W        W15048  11.952   6.455   0.254
 7740W        W15049   4.185   0.715   6.450
 7741W        W15050   4.675   5.989   5.975
 7742W        W15051  12.445   2.181   6.941
 7743W        W15052   7.110   2.650   9.307
 7744W        W15053  13.912   7.884   0.743
 7745W        W15054   0.274   0.753   6.445
 7746W        W15055   0.248   4.561   6.932
 7747W        W15056  10.015   9.308   5.965
 7748W        W15057   5.158   8.372   0.263
 7749W        W15058  11.021   5.965   0.748
 7750W        W15059   1.737   8.337   8.847
 7751W        W15060  12.463   5.018   7.861
 7752W        W15061   8.069   0.260   0.284
 7753W        W15062   2.700   8.819   8.341
 7754W        W15063   5.612   0.734   6.440
 7755W        W15064   5.133   6.444   0.747
 7756W        W15065  14.911   6.445   0.279
 7757W        W15066  15.878   3.111   8.357
 7758W        W15067   8.540   3.116   7.399
 7759W        W15068  13.906   5.953   7.414
 7760W        W15069   8.097   0.752   8.843
 7761W        W15070  17.351   4.564   6.945
 7762W        W15071  11.471   9.769   0.730
 7763W        W15072  13.432   4.051   8.810
 7764W        W15073  16.371   4.527   7.900
 7765W        W15074  10.027   8.367   0.239
 7766W        W15075   3.661   2.623   7.902
 7767W        W15076   7.590   2.167   7.427
 7768W        W15077   2.713   7.900   5.956
 7769W        W15078   4.187   1.219   7.868
 7770W        W15079  11.013   4.095   8.838
 7771W        W15080  14.907   7.865   8.841
 7772W        W15081  10.993   4.532   7.399
 7773W        W15082   7.103   5.005   0.731
 7774W        W15083  10.981   5.494   9.309
 7775W        W15084  11.487   5.961   9.783
 7776W        W15085  18.806   6.925   9.301
 7777W        W15086  11.479   8.844   0.266
 7778W        W15087  11.023   4.545   9.315
 7779W        W15088   9.537   5.487   6.460
 7780W        W15089  18.325   3.604   6.446
 7781W        W15090  18.812   0.252   0.239
 7782W        W15091  18.812   3.138   8.836
 7783W        W15092  17.347   6.439   9.293
 7784W        W15093  15.410   7.900   6.476
 7785W        W15094  17.339   9.288   6.435
 7786W        W15095   6.136   0.250   9.297
 7787W        W15096   2.729   6.919   8.343
 7788W        W15097   4.167   3.103   5.998
 7789W        W15098   7.083   4.550   7.894
 7790W        W15099   5.638   6.940   7.403
 7791W        W15100   2.210   2.177   9.292
 7792W        W15101   0.272   4.093   5.977
 7793W        W15102   7.107   7.873   8.820
 7794W        W15103   1.723   7.882   0.740
 7795W        W15104  18.829   1.681   9.785
 7796W        W15105   8.577   5.520   8.811
 7797W        W15106  13.425   2.660   0.720
 7798W        W15107  10.528   4.525   6.946
 7799W        W15108  14.416   1.695   8.820
 7800W        W15109   7.106   8.811   6.909
 7801W        W15110  16.861   1.697   0.264
 7802W        W15111   1.241   3.127   8.353
 7803W        W15112   9.052   4.072   6.907
 7804W        W15113   4.641   4.547   6.933
 7805W        W15114  11.023   0.274   0.275
 7806W        W15115  10.501   9.784   0.280
 7807W        W15116  15.402   4.092   9.318
 7808W        W15117   2.731   5.005   0.757
 7809W        W15118  11.016   8.852   8.835
 7810W        W15119   2.203   4.527   1.209
 7811W        W15120   4.189   8.357   9.328
 7812W        W15121  16.384   7.882   6.453
 7813W        W15122  19.801   2.661   0.740
 7814W        W15123   8.065   9.802   8.833
 7815W        W15124  14.881   1.199   9.321
 7816W        W15125  13.418   5.512   5.991
 7817W        W15126  12.970   2.156   6.449
 7818W        W15127  13.439   5.959   0.244
 7819W        W15128   2.207   7.405   9.314
 7820W        W15129   4.182   6.940   0.748
 7821W        W15130  11.005   2.621   6.441
 7822W        W15131   8.558   1.667   5.969
 7823W        W15132   2.201   9.800   8.854
 7824W        W15133  11.004   5.015   7.875
 7825W        W15134  19.793   2.169   9.294
 7826W        W15135   3.212   7.428   0.271
 7827W        W15136  19.797   3.119   8.354
 7828W        W15137  10.996   0.250   6.911
 7829W        W15138  14.434   2.145   6.440
 7830W        W15139   0.257   7.399   8.846
 7831W        W15140   9.046   3.594   0.249
 7832W        W15141  16.365   1.230   8.346
 7833W        W15142  13.444   5.976   9.296
 7834W        W15143  13.950   5.035   0.281
 7835W        W15144  10.500   0.747   0.281
 7836W        W15145   9.031   3.575   7.403
 7837W        W15146  10.018   1.698   6.932
 7838W        W15147   2.197   7.860   8.811
 7839W        W15148  19.785   9.772   6.466
 7840W        W15149   3.178   5.000   9.763
 7841W        W15150   2.210   2.650   8.831
 7842W        W15151  10.984   4.547   6.931
 7843W        W15152   6.630   3.594   8.811
 7844W        W15153  12.955   3.590   7.876
 7845W        W15154  16.859   9.297   6.911
 7846W        W15155   9.512   8.846   8.836
 7847W        W15156   0.279   0.744   9.808
 7848W        W15157  13.425   1.229   0.718
 7849W        W15158   5.648   7.869   9.325
 7850W        W15159   1.223   5.007   7.394
 7851W        W15160   9.053   9.292   7.882
 7852W        W15161   3.191   6.434   6.949
 7853W        W15162  17.340   3.139   9.784
 7854W        W15163   5.625   1.209   5.985
 7855W        W15164   4.676   2.179   8.346
 7856W        W15165  19.282   3.572   5.981
 7857W        W15166  10.020   4.053   8.842
 7858W        W15167  18.315   9.793   8.823
 7859W        W15168   3.662   3.614   0.250
 7860W        W15169  17.853   3.574   5.956
 7861W        W15170  13.902   7.383   7.901
 7862W        W15171   1.260   1.714   6.462
 7863W        W15172   8.055   0.257   6.922
 7864W        W15173   7.587   4.075   6.430
 7865W        W15174   0.751   6.468   0.261
 7866W        W15175  13.440   0.730   6.937
 7867W        W15176  19.285   7.860   5.983
 7868W        W15177   7.565   8.818   7.429
 7869W        W15178   7.584   9.766   5.993
 7870W        W15179   9.055   9.329   0.253
 7871W        W15180   0.261   6.459   0.274
 7872W        W15181  12.466   2.649   7.424
 7873W        W15182  15.881   4.065   8.826
 7874W        W15183  17.332   5.966   7.889
 7875W        W15184  14.925   6.453   7.888
 7876W        W15185  14.396   5.036   8.370
 7877W        W15186  19.767   8.356   0.740
 7878W        W15187  15.854   9.331   7.409
 7879W        W15188   3.182   2.166   9.771
 7880W        W15189  14.402   4.059   9.313
 7881W        W15190  19.768   8.345   8.364
 7882W        W15191   3.192   4.562   0.732
 7883W        W15192   0.750   9.327   0.265
 7884W        W15193  11.999   3.109   8.848
 7885W        W15194   3.684   3.125   6.437
 7886W        W15195   4.180   3.589   8.381
 7887W        W15196   6.594   1.694   7.409
 7888W        W15197   0.734   7.862   8.820
 7889W        W15198  11.978   6.459   8.346
 7890W        W15199   2.215   5.954   5.991
 7891W        W15200   8.072   5.957   6.914
 7892W        W15201   0.279   5.956   8.822
 7893W        W15202   6.619   7.398   9.764
 7894W        W15203   0.265   6.939   9.775
 7895W        W15204  16.839   1.693   5.973
 7896W        W15205  19.305   9.324   6.916
 7897W        W15206   6.117   5.040   8.349
 7898W        W15207  16.350   3.588   6.474
 7899W        W15208   8.548   2.150   6.440
 7900W        W15209   6.126   1.209   9.329
 7901W        W15210   3.678   5.043   0.728
 7902W        W15211   9.533   8.367   0.247
 7903W        W15212  11.957   0.737   9.804
 7904W        W15213  12.464   6.458   8.854
 7905W        W15214  14.401   3.590   6.913
 7906W        W15215  12.938   8.828   0.761
 7907W        W15216   5.138   0.742   6.945
 7908W        W15217   2.200   4.538   7.896
 7909W        W15218  11.952   4.566   0.264
 7910W        W15219   9.561   5.016   6.909
 7911W        W15220   7.077   3.121   7.874
 7912W        W15221  18.794   2.161   0.266
 7913W        W15222   8.555   1.232   6.916
 7914W        W15223  10.499   9.298   6.431
 7915W        W15224   2.207   2.178   0.242
 7916W        W15225  11.991   2.173   0.726
 7917W        W15226   0.772   5.035   8.366
 7918W        W15227  12.487   1.193   6.467
 7919W        W15228   0.274   9.329   7.887
 7920W        W15229   9.035   2.647   9.323
 7921W        W15230  14.886   5.491   0.714
 7922W        W15231  12.943   8.843   9.771
 7923W        W15232   2.212   7.396   7.877
 7924W        W15233   3.670   5.480   6.935
 7925W        W15234   3.219   9.327   8.824
 7926W        W15235  17.363   8.840   7.425
 7927W        W15236   9.554   8.817   9.781
 7928W        W15237   4.637   3.113   6.949
 7929W        W15238  19.783   0.254   7.904
 7930W        W15239   9.530   4.555   0.260
 7931W        W15240  17.334   5.995   7.420
 7932W        W15241  12.449   2.628   6.452
 7933W        W15242  19.301   3.584   7.422
 7934W        W15243   6.146   4.049   8.857
 7935W        W15244  12.472   1.704   7.428
 7936W        W15245   9.048   7.417   0.744
 7937W        W15246   0.292   4.561   7.858
 7938W        W15247   1.257   0.750   0.742
 7939W        W15248   2.718   6.939   0.273
 7940W        W15249   7.086   1.700   0.284
 7941W        W15250   3.188   8.826   7.405
 7942W        W15251   3.704   3.613   6.935
 7943W        W15252   4.148   3.582   0.276
 7944W        W15253   7.117   7.405   0.733
 7945W        W15254  16.843   6.928   9.319
 7946W        W15255   3.682   8.840   9.809
 7947W        W15256   9.528   4.086   9.296
 7948W        W15257   3.669   5.998   0.732
 7949W        W15258   5.152   1.684   9.307
 7950W        W15259  18.337   9.303   8.842
 7951W        W15260  19.296   7.416   9.805
 7952W        W15261  15.409   5.504   1.223
 7953W        W15262  14.419   1.237   7.387
 7954W        W15263   4.654   5.498   8.356
 7955W        W15264   1.250   6.938   6.937
 7956W        W15265  12.943   1.683   6.444
 7957W        W15266  13.421   3.114   7.423
 7958W        W15267  18.792   4.543   9.306
 7959W        W15268   7.609   1.227   6.926
 7960W        W15269   4.167   2.654   7.404
 7961W        W15270  14.435   4.567   8.348
 7962W        W15271  11.480   8.360   6.912
 7963W        W15272  15.379   6.944   7.863
 7964W        W15273  19.803   2.180   6.440
 7965W        W15274  11.008   6.445   8.376
 7966W        W15275  12.940   3.596   8.371
 7967W        W15276   2.687   0.726   9.326
 7968W        W15277  11.971   8.824   8.356
 7969W        W15278   2.201   7.884   9.797
 7970W        W15279  13.452   7.383   0.730
 7971W        W15280   4.669   4.560   8.367
 7972W        W15281  18.809   7.883   7.873
 7973W        W15282  16.842   0.724   0.718
 7974W        W15283  16.836   6.938   0.274
 7975W        W15284  11.511   7.870   0.255
 7976W        W15285  13.449   6.936   6.910
 7977W        W15286   2.716   5.506   6.467
 7978W        W15287   2.694   8.360   8.339
 7979W        W15288  19.766   5.484   9.298
 7980W        W15289   8.053   1.702   6.440
 7981W        W15290   3.187   2.644   0.756
 7982W        W15291   5.631   8.830   8.360
 7983W        W15292  14.901   8.816   7.902
 7984W        W15293   0.273   1.211   0.251
 7985W        W15294   7.593   3.587   0.746
 7986W        W15295  18.812   6.951   8.842
 7987W        W15296   5.163   7.879   5.985
 7988W        W15297   2.228   1.237   9.802
 7989W        W15298  13.907   3.111   8.831
 7990W        W15299  11.980   4.543   5.959
 7991W        W15300   3.178   1.714   0.239
 7992W        W15301  13.434   1.202   8.856
 7993W        W15302   7.600   0.731   9.771
 7994W        W15303   8.062   5.503   0.275
 7995W        W15304  19.275   6.934   6.472
 7996W        W15305   3.180   0.278   6.448
 7997W        W15306  13.921   3.128   0.755
 7998W        W15307  15.866   7.420   0.263
 7999W        W15308   4.674   0.744   8.833
 8000W        W15309  11.492   6.918   6.908
 8001W        W15310   7.091   1.201   8.379
 8002W        W15311   1.750   4.541   9.774
 8003W        W15312  11.469   2.180   0.751
 8004W        W15313  18.316   8.358   6.439
 8005W        W15314   5.621   3.118   9.789
 8006W        W15315  19.275   3.110   0.285
 8007W        W15316  12.487   3.142   0.285
 8008W        W15317  11.982   7.882   9.306
 8009W        W15318  15.886   1.210   6.474
 8010W        W15319  10.034   3.579   9.302
 8011W        W15320  18.823   3.140   0.753
 8012W        W15321  17.844   0.271   7.885
 8013W        W15322   2.715   7.866   9.298
 8014W        W15323  15.378   3.111   7.892
 8015W        W15324   0.739   7.882   5.998
 8016W        W15325  11.006   3.105   0.738
 8017W        W15326   7.606   4.072   7.859
 8018W        W15327  19.306   9.796   8.353
 8019W        W15328  14.429   5.033   7.386
 8020W        W15329  11.958   2.654   9.775
 8021W        W15330   7.073   9.318   0.284
 8022W        W15331   5.138   4.539   9.320
 8023W        W15332   0.267   5.515   0.760
 8024W        W15333  17.347   8.369   0.251
 8025W        W15334  16.859   2.665   7.386
 8026W        W15335   7.113   9.774   8.831
 8027W        W15336  12.481   9.293   9.323
 8028W        W15337   2.212   7.399   0.279
 8029W        W15338  14.412   2.630   7.891
 8030W        W15339   0.261   4.567   0.257
 8031W        W15340  15.871   1.689   8.364
 8032W        W15341  12.941   6.949   6.474
 8033W        W15342   8.083   8.831   7.869
 8034W        W15343  17.820   7.881   6.447
 8035W        W15344  18.805   7.858   6.914
 8036W        W15345  14.891   8.378   6.933
 8037W        W15346  18.818   9.295   6.946
 8038W        W15347   5.637   6.915   7.891
 8039W        W15348   5.640   0.239   9.330
 8040W        W15349   4.176   3.576   6.436
 8041W        W15350   5.149   5.989   0.239
 8042W        W15351  11.988   7.392   7.890
 8043W        W15352   5.651   2.167   7.895
 8044W        W15353  16.854   5.508   9.292
 8045W        W15354   6.621   8.822   9.329
 8046W        W15355   4.168   0.258   6.916
 8047W        W15356  13.423   8.367   0.285
 8048W        W15357   9.028   7.869   6.466
 8049W        W15358  15.383   8.373   0.733
 8050W        W15359   0.742   7.904   7.420
 8051W        W15360   8.557   3.587   8.836
 8052W        W15361  15.391   3.578   7.395
 8053W        W15362   5.633   9.770   6.922
 8054W        W15363  16.840   0.734   9.763
 8055W        W15364  13.933   8.826   6.436
 8056W        W15365  11.493   3.113   9.782
 8057W        W15366  11.010   1.219   6.432
 8058W        W15367   0.291   3.137   7.883
 8059W        W15368   2.226   6.476   7.873
 8060W        W15369  16.352   4.567   9.784
 8061W        W15370  10.498   9.796   9.792
 8062W        W15371  12.486   0.718   6.939
 8063W        W15372  12.935   3.126   6.431
 8064W        W15373  12.934   2.156   1.215
 8065W        W15374  16.829   0.720   6.453
 8066W        W15375  13.944   6.446   6.472
 8067W        W15376  14.927   4.069   6.459
 8068W        W15377  10.517   9.799   9.300
 8069W        W15378   7.601   9.803   0.267
 8070W        W15379   4.674   9.778   8.844
 8071W        W15380  10.992   5.480   6.939
 8072W        W15381  13.456   2.665   6.936
 8073W        W15382   5.610   8.352   9.317
 8074W        W15383   9.542   1.684   0.745
 8075W        W15384  16.838   7.866   9.775
 8076W        W15385  18.800   8.376   6.454
 8077W        W15386  14.920   5.027   9.327
 8078W        W15387   3.205   8.336   6.940
 8079W        W15388  18.312   9.330   5.986
 8080W        W15389  11.958   4.062   8.358
 8081W        W15390   9.045   6.458   9.788
 8082W        W15391   4.656   8.852   5.984
 8083W        W15392  15.901   6.464   6.926
 8084W        W15393  10.992   9.312   8.852
 8085W        W15394  10.030   7.864   9.798
 8086W        W15395  18.298   3.120   5.953
 8087W        W15396  13.909   0.731   9.803
 8088W        W15397   8.570   1.693   7.885
 8089W        W15398  16.377   5.522   6.927
 8090W        W15399   8.574   8.335   7.392
 8091W        W15400  15.889   5.004   0.722
 8092W        W15401   6.115   9.297   8.340
 8093W        W15402   5.616   6.909   8.342
 8094W        W15403  11.995   4.554   9.332
 8095W        W15404   7.604   1.223   0.716
 8096W        W15405  16.829   6.952   0.751
 8097W        W15406  15.893   2.166   6.914
 8098W        W15407  12.466   5.522   7.400
 8099W        W15408   7.088   1.200   9.328
 8100W        W15409  17.342   9.291   7.891
 8101W        W15410   2.215   5.486   7.423
 8102W        W15411   7.596   2.639   8.356
 8103W        W15412  10.523   4.549   8.373
 8104W        W15413  19.315   8.852   6.951
 8105W        W15414  10.004   2.656   8.358
 8106W        W15415  10.996   9.333   7.902
 8107W        W15416   1.718   0.256   9.807
 8108W        W15417  18.298   4.534   6.449
 8109W        W15418  17.816   6.446   7.421
 8110W        W15419  18.304   5.503   7.889
 8111W        W15420  12.487   5.502   7.882
 8112W        W15421  18.314   8.817   9.808
 8113W        W15422  14.432   6.476   9.289
 8114W        W15423   0.291   5.005   7.402
 8115W        W15424  10.010   0.724   8.381
 8116W        W15425   8.073   2.620   0.741
 8117W        W15426  11.993   3.611   0.284
 8118W        W15427  18.298   5.977   6.926
 8119W        W15428  14.912   9.312   6.465
 8120W        W15429  16.365   5.987   6.445
 8121W        W15430  16.865   0.259   9.763
 8122W        W15431  13.435   6.936   7.414
 8123W        W15432  15.394   5.039   9.288
 8124W        W15433  11.963   7.858   9.784
 8125W        W15434   8.573   4.561   9.332
 8126W        W15435   6.121   5.488   5.993
 8127W        W15436  16.347   9.765   8.361
 8128W        W15437   1.722   5.016   7.860
 8129W        W15438   5.625   5.978   9.295
 8130W        W15439  17.332   6.459   0.283
 8131W        W15440   4.655   4.057   8.832
 8132W        W15441  10.034   2.663   8.826
 8133W        W15442  17.334   2.641   9.786
 8134W        W15443  15.866   2.652   0.279
 8135W        W15444   3.705   7.394   8.372
 8136W        W15445   3.171   5.490   9.791
 8137W        W15446   4.192   4.570   6.950
 8138W        W15447   9.524   9.794   5.978
 8139W        W15448  17.348   0.747   1.234
 8140W        W15449   9.549   3.583   6.443
 8141W        W15450   4.161   5.489   6.933
 8142W        W15451   4.665   5.517   6.474
 8143W        W15452  14.396   7.422   7.897
 8144W        W15453   9.525   9.789   7.421
 8145W        W15454  12.965   9.304   0.264
 8146W        W15455   6.108   4.072   0.749
 8147W        W15456  17.345   0.264   7.873
 8148W        W15457   6.136   8.348   6.938
 8149W        W15458   4.674   4.084   8.360
 8150W        W15459  19.800   5.980   6.433
 8151W        W15460   7.583   5.001   8.849
 8152W        W15461   5.624   5.009   9.309
 8153W        W15462   9.549   9.295   8.838
 8154W        W15463   9.540   9.295   6.939
 8155W        W15464  10.528   8.833   6.454
 8156W        W15465   0.274   9.765   7.397
 8157W        W15466  14.435   6.914   9.326
 8158W        W15467  19.315   5.510   0.727
 8159W        W15468  19.305   3.607   6.932
 8160W        W15469   2.199   3.097   8.354
 8161W        W15470   4.651   1.234   7.393
 8162W        W15471  13.907   2.636   8.837
 8163W        W15472   9.556   5.510   8.839
 8164W        W15473   6.599   2.161   6.430
 8165W        W15474  17.806   9.782   9.796
 8166W        W15475  14.911   4.089   7.894
 8167W        W15476   0.741   9.766   0.282
 8168W        W15477  17.353   3.101   0.757
 8169W        W15478  16.854   1.713   8.363
 8170W        W15479  11.976   3.589   7.397
 8171W        W15480  17.354   3.127   6.941
 8172W        W15481   1.728   2.628   6.926
 8173W        W15482   5.637   5.496   6.950
 8174W        W15483  10.997   3.134   8.850
 8175W        W15484   3.682   6.439   6.916
 8176W        W15485   4.656   8.856   8.359
 8177W        W15486  17.353   0.272   8.826
 8178W        W15487   8.580   7.401   0.259
 8179W        W15488   0.292   8.357   6.452
 8180W        W15489   4.663   8.838   6.445
 8181W        W15490   2.689   5.482   9.795
 8182W        W15491   1.249   9.796   8.336
 8183W        W15492   2.211   0.239   6.460
 8184W        W15493   8.563   9.315   8.820
 8185W        W15494   6.125   1.205   6.935
 8186W        W15495   1.231   5.023   9.794
 8187W        W15496   7.583   6.937   0.752
 8188W        W15497   2.722   9.792   9.778
 8189W        W15498   5.637   7.865   6.431
 8190W        W15499  17.833   0.743   7.861
 8191W        W15500   1.726   5.962   5.953
 8192W        W15501   3.202   8.376   6.471
 8193W        W15502   9.545   2.638   6.442
 8194W        W15503  18.828   5.520   5.975
 8195W        W15504  13.936   5.499   7.414
 8196W        W15505   8.547   3.610   0.751
 8197W        W15506  11.997   6.917   8.337
 8198W        W15507  16.376   8.847   7.902
 8199W        W15508   3.179   8.811   7.858
 8200W        W15509   7.076   3.591   6.450
 8201W        W15510  12.449   9.775   6.450
 8202W        W15511  11.499   1.679   0.265
 8203W        W15512   4.157   9.807   6.909
 8204W        W15513  19.785   0.255   8.821
 8205W        W15514  12.471   0.248   0.258
 8206W        W15515  13.455   5.026   7.895
 8207W        W15516  14.914   7.903   6.475
 8208W        W15517  15.409   9.786   9.292
 8209W        W15518  11.498   1.672   9.793
 8210W        W15519  17.823   6.442   9.769
 8211W        W15520   0.742   7.893   7.884
 8212W        W15521  14.922   3.104   0.281
 8213W        W15522  13.933   6.448   8.342
 8214W        W15523  11.010   6.441   6.439
 8215W        W15524  12.938   6.451   7.396
 8216W        W15525   7.090   8.380   8.821
 8217W        W15526  12.972   1.212   6.471
 8218W        W15527  10.991   6.445   7.409
 8219W        W15528   6.610   4.568   9.776
 8220W        W15529   8.553   9.320   7.904
 8221W        W15530  18.789   8.815   8.810
 8222W        W15531   9.046   9.801   6.460
 8223W        W15532   5.135   1.230   9.326
 8224W        W15533  15.888   4.079   9.302
 8225W        W15534  11.486   4.083   7.397
 8226W        W15535   8.540   9.287   0.266
 8227W        W15536   0.766   9.808   6.462
 8228W        W15537   0.277   5.974   0.729
 8229W        W15538   8.096   8.363   8.825
 8230W        W15539  19.780   4.543   9.765
 8231W        W15540  13.456   5.487   9.298
 8232W        W15541  17.344   0.721   8.370
 8233W        W15542  16.856   5.508   8.340
 8234W        W15543  11.469   7.900   6.945
 8235W        W15544  16.860   9.796   7.878
 8236W        W15545   6.102   2.152   0.240
 8237W        W15546  10.002   5.517   9.806
 8238W        W15547  13.916   9.763   7.426
 8239W        W15548  13.433   6.942   7.887
 8240W        W15549   2.200   3.111   6.445
 8241W        W15550   3.706   7.894   6.457
 8242W        W15551  15.402   4.078   0.248
 8243W        W15552   7.074   0.255   9.315
 8244W        W15553  14.430   7.392   9.319
 8245W        W15554   6.610   0.285   0.245
 8246W        W15555  18.322   1.212   0.249
 8247W        W15556  12.451   6.454   6.456
 8248W        W15557  14.880   4.078   8.354
 8249W        W15558   9.557   8.835   0.264
 8250W        W15559  13.921   2.154   7.416
 8251W        W15560   0.281   3.104   7.411
 8252W        W15561   1.747   5.982   6.917
 8253W        W15562  11.997   5.486   9.302
 8254W        W15563  15.371   1.219   0.745
 8255W        W15564  18.320   5.024   0.743
 8256W        W15565  11.996   2.164   9.797
 8257W        W15566   3.672   0.277   7.891
 8258W        W15567   2.731   3.577   0.735
 8259W        W15568  17.357   4.563   8.824
 8260W        W15569   3.705   5.501   8.849
 8261W        W15570  13.431   7.869   9.293
 8262W        W15571   4.148   0.281   8.816
 8263W        W15572  16.386   1.218   8.825
 8264W        W15573   1.247   7.381   8.358
 8265W        W15574   3.686   9.311   8.842
 8266W        W15575  13.913   0.734   7.428
 8267W        W15576  11.989   2.660   9.326
 8268W        W15577   1.228   4.067   6.949
 8269W        W15578  13.919   3.108   9.804
 8270W        W15579  15.856   8.346   0.259
 8271W        W15580   8.077   2.160   7.410
 8272W        W15581   3.685   0.248   0.272
 8273W        W15582  15.876   6.932   9.328
 8274W        W15583   6.130   6.462   8.834
 8275W        W15584   5.650   8.842   8.825
 8276W        W15585   7.100   8.838   7.903
 8277W        W15586  19.764   7.395   7.882
 8278W        W15587  17.324   5.036   9.291
 8279W        W15588   8.565   3.142   5.963
 8280W        W15589  18.295   8.376   8.849
 8281W        W15590  18.313   4.529   9.809
 8282W        W15591  13.943   5.480   9.309
 8283W        W15592  19.778   0.746   6.436
 8284W        W15593  14.883   5.488   5.977
 8285W        W15594  17.348   6.920   8.822
 8286W        W15595   6.625   3.587   7.387
 8287W        W15596  19.301   5.029   9.791
 8288W        W15597  19.310   6.453   6.441
 8289W        W15598  17.851   0.260   1.230
 8290W        W15599   2.228   9.784   0.256
 8291W        W15600   7.602   5.025   7.859
 8292W        W15601  13.938   9.327   0.243
 8293W        W15602   2.208   4.051   8.816
 8294W        W15603  15.383   8.334   7.389
 8295W        W15604  14.891   1.708   8.841
 8296W        W15605   6.619   8.355   7.393
 8297W        W15606  19.270   0.726   6.951
 8298W        W15607   7.090   6.940   0.750
 8299W        W15608  12.479   5.517   0.759
 8300W        W15609   8.583   5.993   9.797
 8301W        W15610  14.890   1.685   6.905
 8302W        W15611  14.895   2.643   8.850
 8303W        W15612   6.105   2.663   7.423
 8304W        W15613   8.567   3.575   6.913
 8305W        W15614  14.394   7.408   9.800
 8306W        W15615   4.635   1.686   0.739
 8307W        W15616  12.472   3.130   8.349
 8308W        W15617   9.531   3.587   0.718
 8309W        W15618  10.985   5.009   8.837
 8310W        W15619   6.114   6.947   9.300
 8311W        W15620   4.164   6.463   0.255
 8312W        W15621   9.525   4.048   7.901
 8313W        W15622  11.970   1.232   0.262
 8314W        W15623  14.894   8.349   6.458
 8315W        W15624   7.566   0.721   7.393
 8316W        W15625  16.848   7.886   8.813
 8317W        W15626   7.094   2.643   9.771
 8318W        W15627  17.832   1.706   9.780
 8319W        W15628   6.113   1.678   9.771
 8320W        W15629  10.982   4.561   8.846
 8321W        W15630   9.530   5.513   5.996
 8322W        W15631  16.836   3.596   6.928
 8323W        W15632   9.532   0.260   1.222
 8324W        W15633  14.905   0.266   8.839
 8325W        W15634   2.237   3.616   8.813
 8326W        W15635  16.876   2.651   0.722
 8327W        W15636  19.270   9.332   7.859
 8328W        W15637  17.347   1.670   6.940
 8329W        W15638  18.300   7.394   0.740
 8330W        W15639   4.674   0.722   7.422
 8331W        W15640   8.556   2.161   8.336
 8332W        W15641  14.884   4.555   5.974
 8333W        W15642  17.326   8.365   8.854
 8334W        W15643   1.249   7.428   7.400
 8335W        W15644   2.731   4.063   9.332
 8336W        W15645  18.320   2.183   0.276
 8337W        W15646  12.934   8.825   7.386
 8338W        W15647  17.352   7.389   7.393
 8339W        W15648  11.990   0.749   8.836
 8340W        W15649  12.460   8.344   0.723
 8341W        W15650  10.980   3.609   7.410
 8342W        W15651  11.977   3.597   6.931
 8343W        W15652   3.190   9.766   6.457
 8344W        W15653   9.544   3.585   8.376
 8345W        W15654   8.065   7.905   7.865
 8346W        W15655  11.991   9.327   6.913
 8347W        W15656  17.825   4.547   9.298
 8348W        W15657   4.656   3.572   7.406
 8349W        W15658  16.379   3.594   5.979
 8350W        W15659  11.507   6.937   7.891
 8351W        W15660   9.545   3.111   6.453
 8352W        W15661  14.914   5.999   7.894
 8353W        W15662   8.574   5.020   6.430
 8354W        W15663   8.542   5.017   8.343
 8355W        W15664  16.387   1.220   7.419
 8356W        W15665   6.143   5.498   6.451
 8357W        W15666   5.647   2.662   0.257
 8358W        W15667  10.039   3.096   0.241
 8359W        W15668  13.439   5.488   0.283
 8360W        W15669   7.600   4.555   0.726
 8361W        W15670   8.544   3.112   0.269
 8362W        W15671  14.391   3.112   9.776
 8363W        W15672   0.272   6.929   0.721
 8364W        W15673   6.146   7.385   7.403
 8365W        W15674  18.822   3.572   0.756
 8366W        W15675  19.784   9.788   6.942
 8367W        W15676   2.689   0.270   0.724
 8368W        W15677   0.768   8.845   6.913
 8369W        W15678  10.986   6.458   0.735
 8370W        W15679   7.098   4.562   0.738
 8371W        W15680   1.241   7.862   6.437
 8372W        W15681  14.911   5.512   6.928
 8373W        W15682   5.642   0.250   8.374
 8374W        W15683  18.337   9.778   6.910
 8375W        W15684   1.261   5.978   8.845
 8376W        W15685  11.956   1.686   8.359
 8377W        W15686  18.815   4.069   0.725
 8378W        W15687  18.812   1.204   8.335
 8379W        W15688  10.032   9.296   8.848
 8380W        W15689   6.114   4.544   6.912
 8381W        W15690  14.438   2.189   9.287
 8382W        W15691  12.940   5.493   0.239
 8383W        W15692  10.043   2.149   8.813
 8384W        W15693   7.110   1.212   7.859
 8385W        W15694  15.370   0.263   0.283
 8386W        W15695  18.815   8.352   7.900
 8387W        W15696   5.619   8.344   6.924
 8388W        W15697  16.356   0.761   6.948
 8389W        W15698   6.593   5.978   0.751
 8390W        W15699  11.494   2.153   6.913
 8391W        W15700   3.210   7.877   7.395
 8392W        W15701  12.451   9.303   9.768
 8393W        W15702   5.620   3.096   0.715
 8394W        W15703   9.028   4.079   0.725
 8395W        W15704   9.033   3.584   0.714
 8396W        W15705   7.573   7.387   6.923
 8397W        W15706   3.210   0.715   8.824
 8398W        W15707   9.532   3.575   7.423
 8399W        W15708  11.506   4.087   0.264
 8400W        W15709   4.679   2.172   9.799
 8401W        W15710  17.843   2.660   8.852
 8402W        W15711  18.826   1.712   0.243
 8403W        W15712   8.543   4.524   7.902
 8404W        W15713   4.656   7.387   7.875
 8405W        W15714   0.746   0.270   0.282
 8406W        W15715   6.602   8.347   6.939
 8407W        W15716   5.614   4.526   9.803
 8408W        W15717  13.452   9.776   6.938
 8409W        W15718   5.623   8.335   6.450
 8410W        W15719  18.338   1.212   7.389
 8411W        W15720  16.857   7.410   7.423
 8412W        W15721  18.306   9.766   6.468
 8413W        W15722  13.423   9.293   0.274
 8414W        W15723  16.344   8.812   8.856
 8415W        W15724  10.012   1.237   0.280
 8416W        W15725   7.122   3.133   5.981
 8417W        W15726   7.595   7.383   9.772
 8418W        W15727  15.899   4.094   0.746
 8419W        W15728  16.383   7.898   8.357
 8420W        W15729  13.422   7.395   7.394
 8421W        W15730   5.157   1.690   7.394
 8422W        W15731  13.927   3.102   6.929
 8423W        W15732  19.799   1.701   9.768
 8424W        W15733   1.228   2.186   6.474
 8425W        W15734  17.831   5.022   0.727
 8426W        W15735   7.119   4.530   0.265
 8427W        W15736   6.603   2.652   7.397
 8428W        W15737   7.592   9.316   9.808
 8429W        W15738  10.011   7.400   0.252
 8430W        W15739   9.542   4.547   0.733
 8431W        W15740  18.817   6.433   7.410
 8432W        W15741  15.866   4.062   7.424
 8433W        W15742   8.559   8.371   7.890
 8434W        W15743   9.521   4.542   8.365
 8435W        W15744   7.610   3.111   8.360
 8436W        W15745  13.915   1.668   9.325
 8437W        W15746   1.246   2.625   7.884
 8438W        W15747  19.295   7.381   5.973
 8439W        W15748  15.880   0.267   0.759
 8440W        W15749  12.935   4.530   0.271
 8441W        W15750  13.455   6.930   8.832
 8442W        W15751  10.982   1.192   9.770
 8443W        W15752   9.055   8.852   7.871
 8444W        W15753   2.729   8.818   6.915
 8445W        W15754   2.720   6.932   6.435
 8446W        W15755  15.867   0.758   6.915
 8447W        W15756   7.101   1.707   7.870
 8448W        W15757  19.313   8.811   6.457
 8449W        W15758  13.925   1.683   8.829
 8450W        W15759   8.095   0.742   6.464
 8451W        W15760  10.033   8.355   0.753
 8452W        W15761   6.140   4.054   8.349
 8453W        W15762   2.206   3.100   0.262
 8454W        W15763   0.257   1.672   8.372
 8455W        W15764  19.802   3.123   0.284
 8456W        W15765   5.635   6.454   8.345
 8457W        W15766   1.751   9.797   7.428
 8458W        W15767  17.344   8.810   7.858
 8459W        W15768   5.156   5.996   8.378
 8460W        W15769   2.692   6.915   0.748
 8461W        W15770  19.782   3.095   8.821
 8462W        W15771  17.354   6.941   7.403
 8463W        W15772   9.523   0.746   6.945
 8464W        W15773  11.016   4.086   9.764
 8465W        W15774   3.179   7.876   6.905
 8466W        W15775  16.386   4.533   7.424
 8467W        W15776  11.963   9.321   9.796
 8468W        W15777  14.413   4.089   9.787
 8469W        W15778   3.190   5.957   0.715
 8470W        W15779  16.860   6.436   8.820
 8471W        W15780   0.250   8.837   0.729
 8472W        W15781  16.380   5.975   6.949
 8473W        W15782   9.057   7.898   7.871
 8474W        W15783  11.964   3.575   8.813
 8475W        W15784  14.888   0.723   0.749
 8476W        W15785   5.620   4.090   8.339
 8477W        W15786  16.876   7.893   9.320
 8478W        W15787  12.932   5.033   8.835
 8479W        W15788   9.073   5.000   9.293
 8480W        W15789  16.358   0.242   6.929
 8481W        W15790   1.224   8.827   0.255
 8482W        W15791  14.904   6.907   5.964
 8483W        W15792   9.551   6.470   8.362
 8484W        W15793   4.158   7.396   6.470
 8485W        W15794   9.066   2.157   6.947
 8486W        W15795   4.641   5.979   0.721
 8487W        W15796   4.671   5.972   7.890
 8488W        W15797   8.567   0.264   9.299
 8489W        W15798  10.037   5.498   9.302
 8490W        W15799  10.003   2.144   6.444
 8491W        W15800  10.034   4.568   0.265
 8492W        W15801   5.654   0.274   0.263
 8493W        W15802  11.020   5.518   0.734
 8494W        W15803  17.827   9.322   0.740
 8495W        W15804  16.859   8.368   8.358
 8496W        W15805  10.007   6.460   7.863
 8497W        W15806  14.393   1.228   0.750
 8498W        W15807   6.141   3.138   9.775
 8499W        W15808  12.471   0.256   8.852
 8500W        W15809   1.235   6.908   7.877
 8501W        W15810  13.421   7.904   6.949
 8502W        W15811   8.539   1.680   9.300
 8503W        W15812  13.460   6.925   6.448
 8504W        W15813  19.310   0.759   8.812
 8505W        W15814   7.596   1.678   0.275
 8506W        W15815   1.729   5.518   8.830
 8507W        W15816   0.755   1.197   8.810
 8508W        W15817   2.700   9.289   9.764
 8509W        W15818   3.174   6.941   8.817
 8510W        W15819   4.674   1.204   9.302
 8511W        W15820   5.613   1.706   8.815
 8512W        W15821  13.937   6.933   7.398
 8513W        W15822   0.733   5.499   9.291
 8514W        W15823  12.459   6.453   7.876
 8515W        W15824   8.096   2.176   8.836
 8516W        W15825   1.233   6.943   8.832
 8517W        W15826  12.447   4.567   0.738
 8518W        W15827  18.294   8.831   0.750
 8519W        W15828   2.213   6.906   6.917
 8520W        W15829   2.228   3.602   0.718
 8521W        W15830  11.009   8.359   5.995
 8522W        W15831   0.743   5.483   5.956
 8523W        W15832  10.505   4.533   5.971
 8524W        W15833  10.507   6.934   7.419
 8525W        W15834  15.386   9.301   0.717
 8526W        W15835  11.468   0.251   7.406
 8527W        W15836   7.074   5.043   6.440
 8528W        W15837  14.393   7.404   8.816
 8529W        W15838   5.617   6.937   8.847
 8530W        W15839   8.071   8.843   6.936
 8531W        W15840   5.165   2.171   9.291
 8532W        W15841   0.278   5.956   6.469
 8533W        W15842  12.443   5.045   9.299
 8534W        W15843   0.740   0.262   0.742
 8535W        W15844  11.483   2.627   8.377
 8536W        W15845   4.176   4.092   8.827
 8537W        W15846  18.810   4.527   8.359
 8538W        W15847  16.836   8.814   9.767
 8539W        W15848   9.065   6.472   5.966
 8540W        W15849  10.510   4.057   9.771
 8541W        W15850   9.559   8.353   7.895
 8542W        W15851  11.964   8.344   6.467
 8543W        W15852   6.099   5.964   9.766
 8544W        W15853  16.368   5.509   6.457
 8545W        W15854  11.963   5.972   0.257
 8546W        W15855  12.952   9.289   0.735
 8547W        W15856   0.277   3.596   6.458
 8548W        W15857  11.962   7.408   7.409
 8549W        W15858  10.983   4.559   0.748
 8550W        W15859  19.311   8.365   8.838
 8551W        W15860  14.417   7.899   7.894
 8552W        W15861   0.260   8.831   9.295
 8553W        W15862   5.658   7.866   7.388
 8554W        W15863   7.564   8.361   9.799
 8555W        W15864  16.369   2.171   8.848
 8556W        W15865   9.553   9.775   6.456
 8557W        W15866  11.464   8.358   6.454
 8558W        W15867  19.790   2.658   7.870
 8559W        W15868   2.213   0.256   0.737
 8560W        W15869  16.873   3.590   8.364
 8561W        W15870   1.723   6.943   9.769
 8562W        W15871   5.164   2.158   5.954
 8563W        W15872  15.398   6.938   5.999
 8564W        W15873   7.081   3.613   8.834
 8565W        W15874   5.128   9.307   7.870
 8566W        W15875   5.625   2.625   8.821
 8567W        W15876  11.975   8.834   6.947
 8568W        W15877  18.334   0.738   0.257
 8569W        W15878   4.658   9.319   0.253
 8570W        W15879  15.864   8.369   6.916
 8571W        W15880   6.143   4.072   7.397
 8572W        W15881  18.817   7.859   0.726
 8573W        W15882   8.555   6.470   5.973
 8574W        W15883  16.868   7.410   8.840
 8575W        W15884   0.261   5.041   6.432
 8576W        W15885   1.724   1.705   6.442
 8577W        W15886   8.547   5.480   7.862
 8578W        W15887  18.790   7.392   7.861
 8579W        W15888   0.768   7.866   9.769
 8580W        W15889   9.550   7.392   6.923
 8581W        W15890  19.772   3.590   0.748
 8582W        W15891  19.274   8.360   9.312
 8583W        W15892  10.998   2.165   0.755
 8584W        W15893  13.931   5.999   6.950
 8585W        W15894  16.868   6.933   8.843
 8586W        W15895  19.285   7.386   0.754
 8587W        W15896  17.325   8.843   0.733
 8588W        W15897   7.581   4.083   9.291
 8589W        W15898  14.424   7.885   6.934
 8590W        W15899   5.162   0.280   7.405
 8591W        W15900   5.639   6.432   6.941
 8592W        W15901  11.021   7.415   8.854
 8593W        W15902  12.440   8.354   7.419
 8594W        W15903   9.042   5.518   7.383
 8595W        W15904  15.409   8.824   5.976
 8596W        W15905  19.282   5.018   0.251
 8597W        W15906   3.700   7.386   9.791
 8598W        W15907   7.109   1.686   8.359
 8599W        W15908  16.369   7.388   0.242
 8600W        W15909   9.070   2.635   8.338
 8601W        W15910  16.858   8.357   0.266
 8602W        W15911   3.217   3.598   6.936
 8603W        W15912  12.970   7.877   0.758
 8604W        W15913   8.083   6.461   8.364
 8605W        W15914  13.450   5.489   7.860
 8606W        W15915  18.308   0.252   8.816
 8607W        W15916   4.676   2.170   6.909
 8608W        W15917  11.993   6.917   7.411
 8609W        W15918  15.887   6.437   8.362
 8610W        W15919   2.220   2.654   6.905
 8611W        W15920  16.369   9.318   9.798
 8612W        W15921   2.685   8.855   7.866
 8613W        W15922   9.062   4.066   8.365
 8614W        W15923  19.272   4.554   7.410
 8615W        W15924   3.175   4.557   5.961
 8616W        W15925  18.825   5.520   6.915
 8617W        W15926  10.008   8.819   7.882
 8618W        W15927   9.528   3.613   9.329
 8619W        W15928   7.087   7.405   9.806
 8620W        W15929   7.602   8.810   8.835
 8621W        W15930   3.206   6.456   9.797
 8622W        W15931   3.703   0.716   8.378
 8623W        W15932  15.395   8.812   8.362
 8624W        W15933   4.636   4.087   0.286
 8625W        W15934  12.951   5.957   6.473
 8626W        W15935   9.046   0.263   9.781
 8627W        W15936  13.939   0.265   6.471
 8628W        W15937  19.280   1.671   9.786
 8629W        W15938   1.246   9.791   7.881
 8630W        W15939  17.830   0.727   0.718
 8631W        W15940   5.145   6.473   6.462
 8632W        W15941  12.938   4.561   6.434
 8633W        W15942  10.984   9.298   5.965
 8634W        W15943   4.175   5.519   7.902
 8635W        W15944  13.449   8.838   7.883
 8636W        W15945  11.471   0.262   8.844
 8637W        W15946  19.276   3.096   9.325
 8638W        W15947  15.396   0.260   6.939
 8639W        W15948   0.277   3.600   6.948
 8640W        W15949  16.852   4.049   6.446
 8641W        W15950   1.731   0.728   0.723
 8642W        W15951  10.518   5.477   5.972
 8643W        W15952   3.185   1.689   7.412
 8644W        W15953   9.045   8.372   0.734
 8645W        W15954   1.220   4.077   7.392
 8646W        W15955  13.920   5.517   7.878
 8647W        W15956  12.954   9.306   7.413
 8648W        W15957  14.918   5.966   6.474
 8649W        W15958   6.620   9.793   6.472
 8650W        W15959   7.074   7.901   9.766
 8651W        W15960   7.096   6.938   8.344
 8652W        W15961   8.080   8.825   0.267
 8653W        W15962   2.214   0.283   0.239
 8654W        W15963  16.390   1.192   0.277
 8655W        W15964  19.801   9.769   0.751
 8656W        W15965  11.506   7.394   6.442
 8657W        W15966   1.724   0.269   7.422
 8658W        W15967   1.732   1.201   0.734
 8659W        W15968   3.702   2.640   8.817
 8660W        W15969   8.094   8.371   0.283
 8661W        W15970   0.279   6.913   8.849
 8662W        W15971  18.296   5.495   6.912
 8663W        W15972   9.529   1.690   7.866
 8664W        W15973  11.013   4.067   5.961
 8665W        W15974   8.566   5.487   7.390
 8666W        W15975  18.306   2.626   0.757
 8667W        W15976   4.645   0.755   6.941
 8668W        W15977   6.604   0.723   0.746
 8669W        W15978   8.546   1.693   0.247
 8670W        W15979   5.130   1.219   8.346
 8671W        W15980  19.770   8.811   6.452
 8672W        W15981  19.761   9.314   6.927
 8673W        W15982   4.681   6.442   7.413
 8674W        W15983   5.614   0.258   0.725
 8675W        W15984  16.381   4.088   7.869
 8676W        W15985  18.826   4.054   9.314
 8677W        W15986  14.423   5.039   9.310
 8678W        W15987   6.629   4.571   5.968
 8679W        W15988  15.398   4.050   6.917
 8680W        W15989   8.580   4.562   6.915
 8681W        W15990  10.025   7.402   6.448
 8682W        W15991  17.326   8.379   9.779
 8683W        W15992  15.870   2.158   7.414
 8684W        W15993  11.495   1.231   9.286
 8685W        W15994   2.718   2.188   5.992
 8686W        W15995   0.762   5.995   8.810
 8687W        W15996  10.044   6.458   0.243
 8688W        W15997  18.318   6.926   8.815
 8689W        W15998  15.857   9.779   8.821
 8690W        W15999  15.366   3.610   9.792
 8691W        W16000   1.713   0.283   0.738
 8692W        W16001   4.155   5.517   6.444
 8693W        W16002  17.827   4.537   7.410
 8694W        W16003  13.906   5.956   9.303
 8695W        W16004   8.549   8.824   0.756
 8696W        W16005   2.204   9.801   6.934
 8697W        W16006   4.651   9.780   6.951
 8698W        W16007  19.768   4.070   6.472
 8699W        W16008  14.400   7.420   0.272
 8700W        W16009   5.148   8.359   9.308
 8701W        W16010  15.399   6.909   0.271
 8702W        W16011   7.106   9.289   6.436
 8703W        W16012   8.584   0.264   9.789
 8704W        W16013   0.244   8.336   0.728
 8705W        W16014  17.847   5.032   9.769
 8706W        W16015  14.397   3.119   8.344
 8707W        W16016   6.613   9.303   8.359
 8708W        W16017  17.832   9.291   9.292
 8709W        W16018   4.158   2.620   8.381
 8710W        W16019  12.451   4.053   8.351
 8711W        W16020  13.428   4.534   6.920
 8712W        W16021  10.494   5.014   6.910
 8713W        W16022  15.883   9.784   9.785
 8714W        W16023  18.324   1.687   7.383
 8715W        W16024   1.737   4.526   5.994
 8716W        W16025  12.930   4.051   8.366
 8717W        W16026   9.062   7.391   6.919
 8718W        W16027  13.424   4.090   7.424
 8719W        W16028  11.956   8.846   6.455
 8720W        W16029  18.330   2.171   6.439
 8721W        W16030   4.191   5.517   9.769
 8722W        W16031   8.550   9.302   0.727
 8723W        W16032   1.222   2.655   8.373
 8724W        W16033   9.532   6.457   0.760
 8725W        W16034  13.433   8.362   7.860
 8726W        W16035   8.547   5.012   0.252
 8727W        W16036   0.262   9.325   0.266
 8728W        W16037  13.932   5.519   0.749
 8729W        W16038   2.234   0.717   7.404
 8730W        W16039  16.368   5.964   0.755
 8731W        W16040  12.957   0.281   9.301
 8732W        W16041   9.537   2.175   9.793
 8733W        W16042   0.272   3.113   0.245
 8734W        W16043   5.170   7.897   7.409
 8735W        W16044   6.619   2.642   0.240
 8736W        W16045  14.399   2.173   0.755
 8737W        W16046   3.675   4.091   7.904
 8738W        W16047   9.056   6.948   7.865
 8739W        W16048  14.909   2.665   9.767
 8740W        W16049   4.654   2.622   8.812
 8741W        W16050   5.638   7.391   0.246
 8742W        W16051  16.354   6.917   0.749
 8743W        W16052  12.955   0.254   7.383
 8744W        W16053  12.960   5.967   0.736
 8745W        W16054  16.358   0.744   6.444
 8746W        W16055   4.190   8.345   0.723
 8747W        W16056   7.099   5.493   9.333
 8748W        W16057  12.458   4.063   0.263
 8749W        W16058  10.500   8.368   7.384
 8750W        W16059  17.823   5.020   6.947
 8751W        W16060  17.326   2.159   0.717
 8752W        W16061  16.345   5.983   8.819
 8753W        W16062  10.506   0.718   6.474
 8754W        W16063  11.977   5.956   7.388
 8755W        W16064  16.831   2.187   6.938
 8756W        W16065   1.746   0.744   9.770
 8757W        W16066   5.148   4.534   7.900
 8758W        W16067  16.366   0.746   0.726
 8759W        W16068   7.105   7.899   6.436
 8760W        W16069  15.860   2.656   7.904
 8761W        W16070   2.231   5.513   6.919
 8762W        W16071  11.483   7.399   7.887
 8763W        W16072  10.009   1.707   9.303
 8764W        W16073  10.983   8.825   7.894
 8765W        W16074   3.697   5.492   9.788
 8766W        W16075   8.564   5.482   0.268
 8767W        W16076   2.713   5.508   5.996
 8768W        W16077  19.295   5.492   7.859
 8769W        W16078   5.156   8.336   6.950
 8770W        W16079  17.358   9.317   0.723
 8771W        W16080   0.268   8.371   6.941
 8772W        W16081   8.555   1.679   6.941
 8773W        W16082   0.761   6.470   0.721
 8774W        W16083  11.492   9.328   5.977
 8775W        W16084  13.948   1.674   0.757
 8776W        W16085  16.384   8.353   0.258
 8777W        W16086  14.414   0.745   0.260
 8778W        W16087  13.933   1.704   0.266
 8779W        W16088   3.696   2.626   0.738
 8780W        W16089  11.988   8.842   7.382
 8781W        W16090   0.252   8.849   6.911
 8782W        W16091  19.269   1.699   8.829
 8783W        W16092  19.301   0.242   0.755
 8784W        W16093   2.241   9.796   0.716
 8785W        W16094  16.351   5.966   7.413
 8786W        W16095  10.993   9.321   9.781
 8787W        W16096  10.529   4.549   7.895
 8788W        W16097   3.665   6.466   7.883
 8789W        W16098  16.365   7.897   9.778
 8790W        W16099   0.748   2.183   8.380
 8791W        W16100  11.507   5.958   0.242
 8792W        W16101   0.746   7.882   6.945
 8793W        W16102  19.805   3.596   7.900
 8794W        W16103  10.511   1.202   7.386
 8795W        W16104  14.398   1.683   9.327
 8796W        W16105  16.842   4.090   9.302
 8797W        W16106  18.826   2.654   0.721
 8798W        W16107  17.831   7.898   0.750
 8799W        W16108  10.531   2.639   0.269
 8800W        W16109  16.342   7.396   8.816
 8801W        W16110   7.093   2.654   7.877
 8802W        W16111   6.590   5.489   7.425
 8803W        W16112  18.781   8.855   9.324
 8804W        W16113   8.054   4.549   9.327
 8805W        W16114  15.396   4.552   7.386
 8806W        W16115  13.449   1.236   9.809
 8807W        W16116  12.479   4.553   0.247
 8808W        W16117   3.668   1.705   0.239
 8809W        W16118  18.331   9.295   7.383
 8810W        W16119  13.442   8.363   8.357
 8811W        W16120   9.553   1.707   8.346
 8812W        W16121  15.367   8.351   0.273
 8813W        W16122  17.325   0.734   9.320
 8814W        W16123   7.107   4.065   9.324
 8815W        W16124  14.408   4.565   6.435
 8816W        W16125  14.896   3.606   9.806
 8817W        W16126   1.742   3.107   9.797
 8818W        W16127   6.104   1.673   7.427
 8819W        W16128  16.865   8.353   7.897
 8820W        W16129   7.079   8.848   7.425
 8821W        W16130   1.724   3.582   7.879
 8822W        W16131  19.316   5.973   9.326
 8823W        W16132  15.874   1.236   7.870
 8824W        W16133   6.596   4.079   7.860
 8825W        W16134   6.132   3.611   0.278
 8826W        W16135   5.619   3.101   6.476
 8827W        W16136   3.193   9.793   8.337
 8828W        W16137  14.911   2.174   8.823
 8829W        W16138   9.044   9.305   6.434
 8830W        W16139   1.747   2.658   0.243
 8831W        W16140   8.058   7.409   7.428
 8832W        W16141  19.793   8.358   6.905
 8833W        W16142  14.891   3.123   7.417
 8834W        W16143   2.729   3.130   9.308
 8835W        W16144  16.832   1.228   8.838
 8836W        W16145  12.447   1.233   6.921
 8837W        W16146   8.068   1.192   6.432
 8838W        W16147   4.648   3.591   8.363
 8839W        W16148   6.615   4.539   9.300
 8840W        W16149   2.706   8.379   0.762
 8841W        W16150  10.985   6.929   8.343
 8842W        W16151  15.896   7.412   8.338
 8843W        W16152   9.513   1.209   7.879
 8844W        W16153  18.314   1.697   6.924
 8845W        W16154   1.265   3.106   7.386
 8846W        W16155   8.555   6.474   7.412
 8847W        W16156   5.638   1.680   7.897
 8848W        W16157  19.282   0.751   7.403
 8849W        W16158  16.363   2.636   6.915
 8850W        W16159   3.685   6.438   7.423
 8851W        W16160  14.909   8.350   8.359
 8852W        W16161  15.399   5.981   5.964
 8853W        W16162   4.158   3.581   9.286
 8854W        W16163   4.192   1.200   8.355
 8855W        W16164   7.580   0.243   5.976
 8856W        W16165  11.512   6.459   8.844
 8857W        W16166  17.818   0.270   6.438
 8858W        W16167   1.730   3.097   8.812
 8859W        W16168   2.711   5.957   8.821
 8860W        W16169  10.039   2.643   9.769
 8861W        W16170   2.702   3.596   6.430
 8862W        W16171   7.106   1.218   6.909
 8863W        W16172  18.336   0.734   9.796
 8864W        W16173  17.337   1.714   9.316
 8865W        W16174   1.224   5.033   0.283
 8866W        W16175  11.468   1.212   0.760
 8867W        W16176  10.994   5.987   5.979
 8868W        W16177   4.194   6.452   0.730
 8869W        W16178   9.041   3.096   8.334
 8870W        W16179   7.077   8.368   0.736
 8871W        W16180   6.622   3.124   6.926
 8872W        W16181  10.534   7.424   0.752
 8873W        W16182   9.545   7.426   9.293
 8874W        W16183   7.102   9.800   0.728
 8875W        W16184   3.676   8.336   0.283
 8876W        W16185  17.817   6.947   0.746
 8877W        W16186   5.125   9.773   8.368
 8878W        W16187  17.839   8.825   6.911
 8879W        W16188  12.482   7.427   8.369
 8880W        W16189   4.653   0.248   9.787
 8881W        W16190   5.146   8.338   7.409
 8882W        W16191   6.135   3.122   7.882
 8883W        W16192   5.155   2.189   7.427
 8884W        W16193  18.339   1.705   0.268
 8885W        W16194   3.193   6.450   0.264
 8886W        W16195   3.175   8.850   9.800
 8887W        W16196  17.840   7.406   7.860
 8888W        W16197  13.950   0.716   0.257
 8889W        W16198  13.432   7.887   7.889
 8890W        W16199  13.452   5.034   0.257
 8891W        W16200  10.016   7.418   6.919
 8892W        W16201  14.925   5.486   0.257
 8893W        W16202   0.267   3.118   0.722
 8894W        W16203   7.100   5.013   0.269
 8895W        W16204  11.015   3.577   9.287
 8896W        W16205   9.544   4.570   1.221
 8897W        W16206  18.783   5.009   7.865
 8898W        W16207  12.957   3.142   7.417
 8899W        W16208   7.094   3.110   6.932
 8900W        W16209   9.029   3.612   9.325
 8901W        W16210  12.449   5.019   0.728
 8902W        W16211  19.778   7.385   9.319
 8903W        W16212  11.490   5.510   0.723
 8904W        W16213   1.257   3.599   8.355
 8905W        W16214  11.493   0.747   7.421
 8906W        W16215   1.724   2.621   8.375
 8907W        W16216  14.913   3.132   9.800
 8908W        W16217  15.854   6.933   5.994
 8909W        W16218  19.772   8.351   9.793
 8910W        W16219   5.643   9.784   6.470
 8911W        W16220  15.879   7.425   7.884
 8912W        W16221  18.816   9.808   7.859
 8913W        W16222   4.679   6.923   0.728
 8914W        W16223  10.496   8.840   8.359
 8915W        W16224   0.264   6.453   6.466
 8916W        W16225   0.746   2.159   6.470
 8917W        W16226  18.334   2.641   8.339
 8918W        W16227  16.844   8.841   9.319
 8919W        W16228   0.732   2.175   6.907
 8920W        W16229   9.066   4.525   7.871
 8921W        W16230  11.969   9.763   9.771
 8922W        W16231  12.931   0.275   5.979
 8923W        W16232  15.379   8.368   8.820
 8924W        W16233  16.836   8.819   5.990
 8925W        W16234  15.368   8.854   9.781
 8926W        W16235  17.825   6.437   8.361
 8927W        W16236  17.326   4.562   7.875
 8928W        W16237   2.238   4.528   0.267
 8929W        W16238  17.327   4.089   6.948
 8930W        W16239   0.741   7.405   8.343
 8931W        W16240   7.582   6.905   6.927
 8932W        W16241  18.323   3.583   8.376
 8933W        W16242  12.481   8.350   6.944
 8934W        W16243   5.637   6.452   9.333
 8935W        W16244  11.961   6.454   7.862
 8936W        W16245  13.925   2.156   9.300
 8937W        W16246  19.299   3.111   5.502
 8938W        W16247   5.624   3.591   8.838
 8939W        W16248   4.176   5.500   8.336
 8940W        W16249   3.187   5.496   6.916
 8941W        W16250   9.523   1.214   9.311
 8942W        W16251   0.753   8.811   7.425
 8943W        W16252   2.237   4.540   7.384
 8944W        W16253  17.836   5.509   7.428
 8945W        W16254   8.084   0.252   0.717
 8946W        W16255  15.372   4.059   6.470
 8947W        W16256  16.353   2.659   9.324
 8948W        W16257  11.022   1.706   8.358
 8949W        W16258   5.164   2.177   0.725
 8950W        W16259   9.053   2.154   8.853
 8951W        W16260   7.112   4.530   6.925
 8952W        W16261  10.995   0.757   8.334
 8953W        W16262  14.927   0.717   6.432
 8954W        W16263   6.589   1.675   9.799
 8955W        W16264   0.734   0.262   9.311
 8956W        W16265   7.593   5.961   9.333
 8957W        W16266   5.165   7.867   9.783
 8958W        W16267   9.536   3.111   8.336
 8959W        W16268   3.210   0.724   6.448
 8960W        W16269   4.634   4.048   0.741
 8961W        W16270  15.411   5.979   0.272
 8962W        W16271  14.419   8.818   6.910
 8963W        W16272   5.159   5.996   7.427
 8964W        W16273   4.663   1.700   8.338
 8965W        W16274   5.641   8.847   0.716
 8966W        W16275  19.786   1.678   7.862
 8967W        W16276   1.265   8.822   6.943
 8968W        W16277  11.961   8.380   7.415
 8969W        W16278  19.290   5.512   5.967
 8970W        W16279   9.045   3.122   7.886
 8971W        W16280  16.385   1.671   7.886
 8972W        W16281   2.685   2.160   0.247
 8973W        W16282   1.232   3.581   6.915
 8974W        W16283   9.063   3.101   9.312
 8975W        W16284   7.564   6.939   9.304
 8976W        W16285  12.930   7.418   8.841
 8977W        W16286  18.804   5.483   6.476
 8978W        W16287   8.060   6.935   8.360
 8979W        W16288  18.316   2.176   6.912
 8980W        W16289  16.376   9.768   0.256
 8981W        W16290   7.086   5.011   8.364
 8982W        W16291  13.430   9.305   9.317
 8983W        W16292   8.095   3.108   8.824
 8984W        W16293   7.584   1.679   8.852
 8985W        W16294  16.377   5.006   0.276
 8986W        W16295   7.575   4.076   8.362
 8987W        W16296  14.905   5.962   7.408
 8988W        W16297   2.707   6.933   9.769
 8989W        W16298   2.716   1.238   8.847
 8990W        W16299  10.513   9.296   7.428
 8991W        W16300   6.114   8.827   6.460
 8992W        W16301   3.679   4.562   7.409
 8993W        W16302  14.430   5.030   7.872
 8994W        W16303   8.052   8.842   0.755
 8995W        W16304  15.875   0.717   8.370
 8996W        W16305  12.483   4.551   9.322
 8997W        W16306   6.633   7.870   5.975
 8998W        W16307   7.594   4.539   9.764
 8999W        W16308   1.224   5.960   0.754
 9000W        W16309  19.803   9.327   8.847
 9001W        W16310   3.688   1.674   5.955
 9002W        W16311  11.003   6.905   0.238
 9003W        W16312   8.585   2.661   9.320
 9004W        W16313  19.762   3.096   7.410
 9005W        W16314   4.665   6.449   0.277
 9006W        W16315   9.031   4.548   9.295
 9007W        W16316   5.128   5.998   8.819
 9008W        W16317   0.770   8.824   9.300
 9009W        W16318   5.657   9.780   0.730
 9010W        W16319  15.412   2.182   9.307
 9011W        W16320  16.386   9.795   6.915
 9012W        W16321   1.730   4.061   9.768
 9013W        W16322  12.469   5.501   8.353
 9014W        W16323  16.359   0.728   7.419
 9015W        W16324  15.885   8.833   0.260
 9016W        W16325  10.515   2.164   6.453
 9017W        W16326   8.077   6.925   5.514
 9018W        W16327  10.048   5.987   7.868
 9019W        W16328  19.787   1.705   8.826
 9020W        W16329   0.735   6.451   7.902
 9021W        W16330  13.444   8.811   0.256
 9022W        W16331   8.539   7.394   6.922
 9023W        W16332   2.233   4.569   0.717
 9024W        W16333  17.834   5.513   8.854
 9025W        W16334  16.835   0.728   7.409
 9026W        W16335  18.338   9.287   9.780
 9027W        W16336   5.636   6.446   7.382
 9028W        W16337   2.720   1.236   7.382
 9029W        W16338  15.898   7.870   7.411
 9030W        W16339  12.946   9.806   0.716
 9031W        W16340   3.197   1.677   8.353
 9032W        W16341  15.888   5.512   0.250
 9033W        W16342  19.271   8.816   8.349
 9034W        W16343  10.045   2.151   6.942
 9035W        W16344  16.842   1.700   7.873
 9036W        W16345  17.808   5.045   8.853
 9037W        W16346   9.530   5.977   0.250
 9038W        W16347   2.693   1.213   8.335
 9039W        W16348  12.460   5.977   0.241
 9040W        W16349  10.021   7.884   5.985
 9041W        W16350  10.041   2.650   0.268
 9042W        W16351  19.306   1.228   6.471
 9043W        W16352   5.166   7.404   7.892
 9044W        W16353   9.064   0.740   7.407
 9045W        W16354   0.776   7.408   7.883
 9046W        W16355  10.986   6.932   9.785
 9047W        W16356   7.606   2.659   7.418
 9048W        W16357   2.701   6.446   0.258
 9049W        W16358   7.595   6.920   0.249
 9050W        W16359  19.314   1.199   7.382
 9051W        W16360   8.057   0.252   9.785
 9052W        W16361  11.994   9.809   0.747
 9053W        W16362   5.149   4.072   8.347
 9054W        W16363   6.588   5.986   6.458
 9055W        W16364   1.263   9.782   7.408
 9056W        W16365   1.234   4.053   6.435
 9057W        W16366  13.917   8.365   9.770
 9058W        W16367  11.980   8.365   5.966
 9059W        W16368   4.152   5.043   8.347
 9060W        W16369  11.956   5.021   9.805
 9061W        W16370   3.701   8.849   8.832
 9062W        W16371   3.671   8.832   8.363
 9063W        W16372  10.003   5.001   9.327
 9064W        W16373  10.032   2.176   0.722
 9065W        W16374   1.256   2.153   8.381
 9066W        W16375  12.971   8.377   8.811
 9067W        W16376  16.347   8.378   9.312
 9068W        W16377   8.093   6.934   6.919
 9069W        W16378  15.401   6.940   9.302
 9070W        W16379  17.821   1.701   9.328
 9071W        W16380  11.009   9.775   6.445
 9072W        W16381  12.964   7.862   0.283
 9073W        W16382  12.464   5.481   6.943
 9074W        W16383   3.672   5.981   8.825
 9075W        W16384   8.549   0.726   9.322
 9076W        W16385  16.372   9.313   0.720
 9077W        W16386  13.428   8.373   9.324
 9078W        W16387  19.302   2.159   9.774
 9079W        W16388   2.239   2.153   9.805
 9080W        W16389  15.868   7.900   6.430
 9081W        W16390  11.494   1.193   7.390
 9082W        W16391  19.308   0.729   9.797
 9083W        W16392  13.904   4.550   0.284
 9084W        W16393   2.206   5.002   8.380
 9085W        W16394   3.684   8.345   8.850
 9086W        W16395  16.380   8.358   5.954
 9087W        W16396  16.842   0.268   6.919
 9088W        W16397   4.666   8.832   7.398
 9089W        W16398  15.857   1.235   9.327
 9090W        W16399   0.276   4.049   7.384
 9091W        W16400   4.645   8.363   7.406
 9092W        W16401   6.605   2.152   9.773
 9093W        W16402  15.399   6.451   8.356
 9094W        W16403  10.995   1.672   0.723
 9095W        W16404   2.210   5.026   6.920
 9096W        W16405  11.008   1.210   7.898
 9097W        W16406   1.745   4.549   7.886
 9098W        W16407  10.021   9.808   8.841
 9099W        W16408   5.169   8.851   7.898
 9100W        W16409  10.515   3.127   8.374
 9101W        W16410   1.725   2.164   8.348
 9102W        W16411   1.708   3.118   7.398
 9103W        W16412   7.117   5.485   8.812
 9104W        W16413   4.664   4.091   6.435
 9105W        W16414   4.642   9.288   6.934
 9106W        W16415  15.893   5.988   0.757
 9107W        W16416   8.561   0.249   0.752
 9108W        W16417   5.624   8.337   0.746
 9109W        W16418   6.135   3.617   5.971
 9110W        W16419   7.599   7.884   8.845
 9111W        W16420   8.064   5.014   8.363
 9112W        W16421  18.817   9.293   7.858
 9113W        W16422   0.740   0.745   5.962
 9114W        W16423   0.271   3.574   9.319
 9115W        W16424  10.527   4.072   0.239
 9116W        W16425   6.098   1.688   7.859
 9117W        W16426  18.341   7.389   8.380
 9118W        W16427   6.597   8.347   9.308
 9119W        W16428  10.017   9.772   0.248
 9120W        W16429   8.584   0.246   6.921
 9121W        W16430   6.105   4.071   6.923
 9122W        W16431   1.719   3.104   6.914
 9123W        W16432  19.300   5.518   0.252
 9124W        W16433  14.916   0.728   7.889
 9125W        W16434   5.649   2.158   6.473
 9126W        W16435   1.746   5.041   8.825
 9127W        W16436   4.671   4.073   7.423
 9128W        W16437   2.221   4.534   8.837
 9129W        W16438   5.651   2.169   0.243
 9130W        W16439  17.325   4.072   7.885
 9131W        W16440   1.716   0.758   8.835
 9132W        W16441   4.652   3.104   8.367
 9133W        W16442   5.165   0.757   6.455
 9134W        W16443  10.019   6.936   7.397
 9135W        W16444   9.073   4.525   8.379
 9136W        W16445   4.640   6.470   6.458
 9137W        W16446   5.638   5.043   0.241
 9138W        W16447   8.089   5.964   0.247
 9139W        W16448   7.589   1.220   8.351
 9140W        W16449  12.439   5.506   6.452
 9141W        W16450   5.648   5.487   9.796
 9142W        W16451   6.131   8.814   0.749
 9143W        W16452  18.794   0.757   6.429
 9144W        W16453  10.491   2.160   8.374
 9145W        W16454  15.374   2.187   6.925
 9146W        W16455  11.496   0.741   9.308
 9147W        W16456  17.823   5.002   6.473
 9148W        W16457   1.267   0.261   8.360
 9149W        W16458  19.786   4.542   0.719
 9150W        W16459  17.812   0.742   6.460
 9151W        W16460   5.615   1.204   6.921
 9152W        W16461  19.791   5.953   0.276
 9153W        W16462  10.992   4.091   8.366
 9154W        W16463   7.108   1.707   9.763
 9155W        W16464   8.582   7.888   0.730
 9156W        W16465   0.288   3.578   9.795
 9157W        W16466   0.742   3.611   9.777
 9158W        W16467  17.318   8.852   9.319
 9159W        W16468  14.890   5.517   7.399
 9160W        W16469   4.647   5.042   0.252
 9161W        W16470   0.767   6.910   0.241
 9162W        W16471  19.306   8.368   7.888
 9163W        W16472   8.581   7.865   9.797
 9164W        W16473   1.249   9.309   9.808
 9165W        W16474   7.094   1.676   8.812
 9166W        W16475   6.141   2.182   8.828
 9167W        W16476   3.182   7.863   7.904
 9168W        W16477   4.658   5.013   7.409
 9169W        W16478   2.239   1.669   8.361
 9170W        W16479   1.260   2.182   9.800
 9171W        W16480   5.644   3.119   9.306
 9172W        W16481   3.180   5.986   7.887
 9173W        W16482   5.147   3.139   6.949
 9174W        W16483  13.917   2.624   5.987
 9175W        W16484   1.224   8.374   6.454
 9176W        W16485  10.014   3.100   6.440
 9177W        W16486  13.932   7.383   9.308
 9178W        W16487  17.833   0.244   0.752
 9179W        W16488   6.586   3.095   7.885
 9180W        W16489  13.904   7.884   6.459
 9181W        W16490   6.110   0.279   0.749
 9182W        W16491   1.734   0.748   1.238
 9183W        W16492   8.585   0.259   7.424
 9184W        W16493  18.298   6.909   7.387
 9185W        W16494   2.239   7.426   6.455
 9186W        W16495   5.150   1.220   6.459
 9187W        W16496  17.845   9.298   0.271
 9188W        W16497   6.115   3.119   8.368
 9189W        W16498   3.178   1.707   6.446
 9190W        W16499  19.783   9.763   7.904
 9191W        W16500  15.403   2.184   0.739
 9192W        W16501  15.374   6.912   8.360
 9193W        W16502   3.182   3.592   0.738
 9194W        W16503  19.299   2.148   8.378
 9195W        W16504  15.370   9.313   8.852
 9196W        W16505   0.269   9.775   6.918
 9197W        W16506   0.744   2.189   7.412
 9198W        W16507   1.720   6.472   8.824
 9199W        W16508  12.449   0.275   8.335
 9200W        W16509  16.354   3.140   7.870
 9201W        W16510   7.578   1.669   8.376
 9202W        W16511   6.607   0.743   8.819
 9203W        W16512   2.197   6.928   1.207
 9204W        W16513   9.515   8.371   8.828
 9205W        W16514  17.847   8.337   9.770
 9206W        W16515  14.879   9.315   7.892
 9207W        W16516  12.927   9.790   9.769
 9208W        W16517  18.308   0.263   5.958
 9209W        W16518  12.484   3.589   9.296
 9210W        W16519  17.843   7.414   8.380
 9211W        W16520   6.144   5.512   7.417
 9212W        W16521   4.174   8.827   7.396
 9213W        W16522  13.456   2.663   9.788
 9214W        W16523   4.172   5.042   9.299
 9215W        W16524  11.480   4.069   5.960
 9216W        W16525   1.252   8.834   9.325
 9217W        W16526  18.783   5.521   9.789
 9218W        W16527   5.147   2.164   6.445
 9219W        W16528   5.656   1.199   9.796
 9220W        W16529   3.172   8.827   0.265
 9221W        W16530  15.884   8.831   8.846
 9222W        W16531   4.638   5.015   8.816
 9223W        W16532   6.600   1.208   6.914
 9224W        W16533  11.968   4.544   0.729
 9225W        W16534   4.664   7.418   0.248
 9226W        W16535  14.892   1.198   9.809
 9227W        W16536   5.633   4.563   6.448
 9228W        W16537   8.080   3.579   0.256
 9229W        W16538   7.098   6.909   9.303
 9230W        W16539  13.459   3.607   6.919
 9231W        W16540   0.263   1.693   7.881
 9232W        W16541   5.156   1.219   9.804
 9233W        W16542   6.138   6.951   7.392
 9234W        W16543  18.308   2.658   6.455
 9235W        W16544   1.741   8.380   9.311
 9236W        W16545  10.496   2.665   9.291
 9237W        W16546   9.035   8.836   6.455
 9238W        W16547  18.809   5.002   9.330
 9239W        W16548  18.312   0.250   8.367
 9240W        W16549   0.764   4.085   6.448
 9241W        W16550   0.751   5.506   6.466
 9242W        W16551  11.478   9.790   8.847
 9243W        W16552   6.108   7.871   0.256
 9244W        W16553   8.542   3.576   0.270
 9245W        W16554  19.778   5.026   6.913
 9246W        W16555  10.531   5.002   0.749
 9247W        W16556  17.326   9.768   7.388
 9248W        W16557   4.680   3.604   0.723
 9249W        W16558  16.373   8.360   8.359
 9250W        W16559   3.179   7.397   7.406
 9251W        W16560  17.362   7.892   6.432
 9252W        W16561   4.167   3.586   5.983
 9253W        W16562  13.453   7.402   8.827
 9254W        W16563  14.432   4.079   8.835
 9255W        W16564   3.178   6.932   9.791
 9256W        W16565   9.518   8.812   7.409
 9257W        W16566   7.098   1.219   8.825
 9258W        W16567   7.605   0.753   0.257
 9259W        W16568  11.467   6.919   8.350
 9260W        W16569   3.205   0.259   9.762
 9261W        W16570   4.171   7.415   6.930
 9262W        W16571   1.266   1.671   0.719
 9263W        W16572  11.502   6.946   8.820
 9264W        W16573   3.206   3.573   5.984
 9265W        W16574  15.889   2.620   0.749
 9266W        W16575   2.702   7.884   6.911
 9267W        W16576  12.477   5.047   9.782
 9268W        W16577  10.029   8.816   6.437
 9269W        W16578   5.158   4.532   9.763
 9270W        W16579   1.721   6.460   0.751
 9271W        W16580   5.165   8.856   6.437
 9272W        W16581   1.253   7.872   9.325
 9273W        W16582   1.707   1.206   6.475
 9274W        W16583  11.963   9.294   5.973
 9275W        W16584  11.995   5.029   5.967
 9276W        W16585  10.490   1.201   9.785
 9277W        W16586  17.845   0.260   0.278
 9278W        W16587  15.401   3.619   9.326
 9279W        W16588  10.502   5.493   0.269
 9280W        W16589   5.634   6.454   9.787
 9281W        W16590  19.774   1.238   7.886
 9282W        W16591   9.050   2.629   9.792
 9283W        W16592  13.436   9.771   0.250
 9284W        W16593  15.393   5.954   7.875
 9285W        W16594  15.413   9.321   7.876
 9286W        W16595  13.425   7.876   0.278
 9287W        W16596   6.614   5.986   7.392
 9288W        W16597  15.391   9.804   9.771
 9289W        W16598  13.444   6.475   8.346
 9290W        W16599   7.601   3.112   6.440
 9291W        W16600   6.624   2.654   9.797
 9292W        W16601   3.199   3.592   6.429
 9293W        W16602   4.657   2.185   7.427
 9294W        W16603   2.730   7.428   0.246
 9295W        W16604  10.533   4.526   8.824
 9296W        W16605  12.956   0.719   8.338
 9297W        W16606   6.099   0.254   7.895
 9298W        W16607   1.238   9.794   8.811
 9299W        W16608  16.861   3.139   0.734
 9300W        W16609  10.531   1.668   8.837
 9301W        W16610   8.569   8.342   8.335
 9302W        W16611  14.406   9.804   9.326
 9303W        W16612  10.995   1.667   9.775
 9304W        W16613  18.787   6.454   8.818
 9305W        W16614   7.598   5.013   8.342
 9306W        W16615  13.445   3.120   6.928
 9307W        W16616  10.040   1.224   7.865
 9308W        W16617   3.669   6.938   6.468
 9309W        W16618  19.292   6.932   9.778
 9310W        W16619   9.544   0.757   9.322
 9311W        W16620  14.435   9.314   7.869
 9312W        W16621   7.604   3.096   9.775
 9313W        W16622  10.020   6.449   0.714
 9314W        W16623  10.512   0.721   7.385
 9315W        W16624  15.404   8.832   0.267
 9316W        W16625   5.624   5.484   6.476
 9317W        W16626   0.278   4.083   0.737
 9318W        W16627   1.225   9.769   9.797
 9319W        W16628   9.037   3.106   6.925
 9320W        W16629  17.820   0.278   9.333
 9321W        W16630   9.067   5.042   8.857
 9322W        W16631  13.929   7.858   7.403
 9323W        W16632   4.183   6.930   8.374
 9324W        W16633  15.403   6.474   0.720
 9325W        W16634  10.009   0.268   9.309
 9326W        W16635   2.209   7.884   5.972
 9327W        W16636  12.937   5.976   8.351
 9328W        W16637   9.029   3.597   6.472
 9329W        W16638   7.076   4.557   6.459
 9330W        W16639   8.551   3.574   8.357
 9331W        W16640  15.408   2.653   9.314
 9332W        W16641  15.410   3.591   6.935
 9333W        W16642  15.899   1.693   7.887
 9334W        W16643   2.706   2.625   6.951
 9335W        W16644   3.702   3.591   7.386
 9336W        W16645   0.291   8.347   8.372
 9337W        W16646  16.361   5.011   6.922
 9338W        W16647  17.362   6.917   8.339
 9339W        W16648  10.976   9.327   0.255
 9340W        W16649  19.799   3.122   0.758
 9341W        W16650  13.451   6.436   0.247
 9342W        W16651   6.139   7.418   9.809
 9343W        W16652  11.495   1.203   6.448
 9344W        W16653   0.748   2.629   9.807
 9345W        W16654   7.599   1.675   9.781
 9346W        W16655  18.797   5.002   8.820
 9347W        W16656  19.782   6.934   9.806
 9348W        W16657   3.212   5.041   8.850
 9349W        W16658  15.890   3.122   0.757
 9350W        W16659   2.205   8.345   6.443
 9351W        W16660  16.838   0.269   7.891
 9352W        W16661   6.103   6.942   6.434
 9353W        W16662  19.778   0.750   9.803
 9354W        W16663   5.129   8.371   8.830
 9355W        W16664  12.969   5.490   6.939
 9356W        W16665  10.516   2.182   0.280
 9357W        W16666  17.322   6.937   0.284
 9358W        W16667   6.629   6.440   0.731
 9359W        W16668   1.724   5.026   9.788
 9360W        W16669   0.778   4.532   6.470
 9361W        W16670   0.773   8.373   6.445
 9362W        W16671   1.256   1.706   9.762
 9363W        W16672  12.453   7.867   7.412
 9364W        W16673  15.872   9.790   9.311
 9365W        W16674  11.512   2.177   7.898
 9366W        W16675  14.412   5.521   0.249
 9367W        W16676  17.338   7.875   8.361
 9368W        W16677  18.813   0.272   8.339
 9369W        W16678   8.552   3.112   0.735
 9370W        W16679  14.412   9.779   8.832
 9371W        W16680  17.331   3.120   7.422
 9372W        W16681  19.301   8.829   7.392
 9373W        W16682  14.878   6.438   9.766
 9374W        W16683   5.658   9.311   0.747
 9375W        W16684   0.283   9.298   6.940
 9376W        W16685   4.655   3.141   8.848
 9377W        W16686   4.192   9.766   0.266
 9378W        W16687   4.648   7.414   1.215
 9379W        W16688   2.707   8.846   9.306
 9380W        W16689  17.851   9.795   9.293
 9381W        W16690  13.920   6.927   8.346
 9382W        W16691  17.339   6.452   0.721
 9383W        W16692   0.760   0.761   0.286
 9384W        W16693  12.487   0.721   9.766
 9385W        W16694   5.128   2.185   9.794
 9386W        W16695  18.818   2.654   8.365
 9387W        W16696   6.127   6.945   8.813
 9388W        W16697  17.323   2.648   0.275
 9389W        W16698   5.155   5.975   9.296
 9390W        W16699   6.618   7.404   6.434
 9391W        W16700  13.416   8.849   8.381
 9392W        W16701   7.114   3.139   9.770
 9393W        W16702  15.402   4.088   5.983
 9394W        W16703  14.923   5.982   0.744
 9395W        W16704  18.814   6.471   6.451
 9396W        W16705   0.253   6.919   7.868
 9397W        W16706   6.135   5.030   5.974
 9398W        W16707  12.959   0.268   8.816
 9399W        W16708   9.072   0.247   6.462
 9400W        W16709   9.072   1.218   9.329
 9401W        W16710   2.198   9.767   7.871
 9402W        W16711  10.980   2.170   9.286
 9403W        W16712  11.480   6.467   7.885
 9404W        W16713  13.415   5.973   9.791
 9405W        W16714  13.415   3.611   0.248
 9406W        W16715   4.175   0.722   9.804
 9407W        W16716   9.546   6.465   8.836
 9408W        W16717  11.012   4.554   6.462
 9409W        W16718  14.417   1.681   0.266
 9410W        W16719   2.214   2.659   0.268
 9411W        W16720   0.268   6.925   6.463
 9412W        W16721   6.138   3.579   8.335
 9413W        W16722  19.802   5.960   8.335
 9414W        W16723   5.139   4.550   8.352
 9415W        W16724  17.817   3.605   6.935
 9416W        W16725  15.866   9.773   6.431
 9417W        W16726  17.325   7.876   7.886
 9418W        W16727  17.318   4.549   9.778
 9419W        W16728   0.271   4.078   7.868
 9420W        W16729  18.312   5.513   8.353
 9421W        W16730  15.896   2.187   8.811
 9422W        W16731  12.966   7.868   7.888
 9423W        W16732  17.813   9.295   9.805
 9424W        W16733  19.270   6.440   6.914
 9425W        W16734   0.280   8.334   7.392
 9426W        W16735   6.598   4.086   8.828
 9427W        W16736  15.879   3.126   7.883
 9428W        W16737  19.771   1.212   0.257
 9429W        W16738  11.478   1.230   8.840
 9430W        W16739  13.905   7.416   6.431
 9431W        W16740  15.886   1.707   5.987
 9432W        W16741  13.942   9.768   6.950
 9433W        W16742   9.533   5.038   9.307
 9434W        W16743   1.222   0.241   9.301
 9435W        W16744   5.127   4.094   6.466
 9436W        W16745   1.720   4.570   0.254
 9437W        W16746   8.583   1.198   9.784
 9438W        W16747  10.014   0.722   7.883
 9439W        W16748   0.761   0.275   8.380
 9440W        W16749  10.983   0.727   8.828
 9441W        W16750  18.783   5.009   8.344
 9442W        W16751  12.939   5.495   7.886
 9443W        W16752  17.336   8.839   6.920
 9444W        W16753  10.038   3.126   6.909
 9445W        W16754   6.102   8.348   8.349
 9446W        W16755   9.521   5.489   7.387
 9447W        W16756  10.015   5.963   6.937
 9448W        W16757   2.217   5.969   6.950
 9449W        W16758  13.416   5.007   9.806
 9450W        W16759  12.000   2.157   7.860
 9451W        W16760  19.283   5.965   7.870
 9452W        W16761   6.133   2.661   9.792
 9453W        W16762  12.000   9.286   6.448
 9454W        W16763   5.640   3.099   0.242
 9455W        W16764   7.591   3.614   7.388
 9456W        W16765  18.317   5.034   7.405
 9457W        W16766  15.383   7.405   6.442
 9458W        W16767  17.360   6.461   6.916
 9459W        W16768  18.827   0.757   1.217
 9460W        W16769   0.267   0.747   7.394
 9461W        W16770  15.382   8.843   7.867
 9462W        W16771  11.482   9.327   0.728
 9463W        W16772   6.137   5.012   0.740
 9464W        W16773   7.107   2.178   6.431
 9465W        W16774  15.887   2.174   0.266
 9466W        W16775   4.159   7.425   9.766
 9467W        W16776  11.992   0.722   0.277
 9468W        W16777   4.153   0.252   9.809
 9469W        W16778  19.767   2.183   9.802
 9470W        W16779  11.487   2.627   8.831
 9471W        W16780   9.039   1.704   0.726
 9472W        W16781   5.610   4.549   8.369
 9473W        W16782   1.712   6.914   9.297
 9474W        W16783  12.959   6.932   7.871
 9475W        W16784   5.138   4.529   6.907
 9476W        W16785   0.267   5.962   0.254
 9477W        W16786  14.898   6.911   0.734
 9478W        W16787  16.833   2.186   0.725
 9479W        W16788   1.243   3.142   6.431
 9480W        W16789  19.765   6.448   6.438
 9481W        W16790   5.648   5.977   0.256
 9482W        W16791  15.372   4.079   0.761
 9483W        W16792   2.203   8.851   8.358
 9484W        W16793  12.970   9.795   0.271
 9485W        W16794  11.467   6.927   9.291
 9486W        W16795   9.047   5.990   8.819
 9487W        W16796   2.242   3.120   0.737
 9488W        W16797   6.628   4.088   9.790
 9489W        W16798  10.984   4.553   7.888
 9490W        W16799  12.965   8.370   0.759
 9491W        W16800   1.261   1.209   9.318
 9492W        W16801  18.798   2.189   7.406
 9493W        W16802   5.629   7.412   5.991
 9494W        W16803  15.854   5.966   9.784
 9495W        W16804  19.313   8.362   6.454
 9496W        W16805   8.581   5.994   7.383
 9497W        W16806  19.293   5.979   6.914
 9498W        W16807   6.591   2.146   8.370
 9499W        W16808  12.973   3.134   9.288
 9500W        W16809  10.027   6.932   9.293
 9501W        W16810  12.461   1.674   6.931
 9502W        W16811  13.433   3.096   9.328
 9503W        W16812  19.774   5.017   0.271
 9504W        W16813  18.819   7.868   0.265
 9505W        W16814   5.632   1.216   7.427
 9506W        W16815  16.375   0.240   6.461
 9507W        W16816  12.480   1.707   9.295
 9508W        W16817   2.707   3.138   0.758
 9509W        W16818   8.544   3.103   7.900
 9510W        W16819   9.514   5.482   9.317
 9511W        W16820  12.963   4.067   6.443
 9512W        W16821  17.837   5.021   7.395
 9513W        W16822   0.262   6.444   8.840
 9514W        W16823   9.069   0.747   0.250
 9515W        W16824   5.611   3.618   9.766
 9516W        W16825   8.062   0.258   6.464
 9517W        W16826  17.845   8.825   7.882
 9518W        W16827  10.998   0.738   9.798
 9519W        W16828   0.271   6.939   0.256
 9520W        W16829  17.838   2.626   7.399
 9521W        W16830   3.194   2.180   7.904
 9522W        W16831   8.097   8.368   7.402
 9523W        W16832  17.359   9.296   6.925
 9524W        W16833  10.008   2.630   6.456
 9525W        W16834  10.532   7.383   7.876
 9526W        W16835  11.975   4.561   6.934
 9527W        W16836  18.307   8.843   6.910
 9528W        W16837  18.814   1.682   8.810
 9529W        W16838   0.744   9.766   9.796
 9530W        W16839  19.801   5.043   9.293
 9531W        W16840  19.269   2.181   7.420
 9532W        W16841   2.226   2.637   8.350
 9533W        W16842   3.217   2.175   8.825
 9534W        W16843   0.756   4.053   8.810
 9535W        W16844  19.784   7.860   8.815
 9536W        W16845   2.688   3.101   0.271
 9537W        W16846  14.438   8.348   8.844
 9538W        W16847  16.865   6.468   7.898
 9539W        W16848   9.538   4.064   5.519
 9540W        W16849   3.669   7.879   9.289
 9541W        W16850   5.651   1.220   9.292
 9542W        W16851  14.894   5.477   9.778
 9543W        W16852  15.407   6.438   6.944
 9544W        W16853  16.386   0.277   9.765
 9545W        W16854   4.664   9.777   8.374
 9546W        W16855  16.346   2.174   0.746
 9547W        W16856   0.778   0.264   6.941
 9548W        W16857   3.173   9.809   9.777
 9549W        W16858   1.230   4.571   7.410
 9550W        W16859   2.716   8.854   7.393
 9551W        W16860  15.887   1.699   9.787
 9552W        W16861  17.319   8.837   8.842
 9553W        W16862  15.370   4.543   7.861
 9554W        W16863  18.789   5.022   7.401
 9555W        W16864   2.200   2.645   6.452
 9556W        W16865   7.605   3.607   6.453
 9557W        W16866   3.675   9.290   9.302
 9558W        W16867   3.212   6.466   7.425
 9559W        W16868  13.425   8.357   6.937
 9560W        W16869   4.191   1.677   7.869
 9561W        W16870  12.974   1.712   5.967
 9562W        W16871   9.525   6.448   9.304
 9563W        W16872  13.928   7.898   9.809
 9564W        W16873  11.984   9.762   8.838
 9565W        W16874  10.035   5.037   0.281
 9566W        W16875   8.563   0.755   5.963
 9567W        W16876   9.555   4.532   8.848
 9568W        W16877  17.848   7.874   6.937
 9569W        W16878   4.153   4.549   9.305
 9570W        W16879   6.138   8.366   1.204
 9571W        W16880   2.213   7.417   7.382
 9572W        W16881   8.093   9.306   7.877
 9573W        W16882   8.558   8.343   6.440
 9574W        W16883  18.823   8.821   6.457
 9575W        W16884  14.894   2.156   6.464
 9576W        W16885   5.137   4.554   7.425
 9577W        W16886  13.439   2.655   8.378
 9578W        W16887  19.317   5.981   9.772
 9579W        W16888  12.950   8.360   9.287
 9580W        W16889   8.062   4.054   6.930
 9581W        W16890  16.380   6.932   7.869
 9582W        W16891   9.539   6.468   7.408
 9583W        W16892  17.805   0.259   9.793
 9584W        W16893  15.882   5.023   7.418
 9585W        W16894   3.183   5.977   7.409
 9586W        W16895  14.920   5.959   0.257
 9587W        W16896  11.952   9.291   0.724
 9588W        W16897   6.098   4.065   7.878
 9589W        W16898  10.010   4.086   6.932
 9590W        W16899  13.904   5.042   7.882
 9591W        W16900   5.639   2.623   9.288
 9592W        W16901   5.142   8.365   6.442
 9593W        W16902  10.506   4.536   7.411
 9594W        W16903  16.853   3.611   9.769
 9595W        W16904   6.623   7.415   0.249
 9596W        W16905  11.987   5.517   0.270
 9597W        W16906  14.888   2.622   6.476
 9598W        W16907   6.601   1.706   0.733
 9599W        W16908  17.335   2.156   6.439
 9600W        W16909   4.639   7.384   9.791
 9601W        W16910  15.893   4.525   7.890
 9602W        W16911   4.189   2.626   6.471
 9603W        W16912  15.377   2.175   7.879
 9604W        W16913  12.932   5.988   6.947
 9605W        W16914  18.821   0.753   9.333
 9606W        W16915  16.386   4.075   8.348
 9607W        W16916  18.790   5.506   0.271
 9608W        W16917  10.037   1.209   6.442
 9609W        W16918  12.960   6.924   8.381
 9610W        W16919   4.181   4.051   7.382
 9611W        W16920  10.536   7.889   7.866
 9612W        W16921  18.785   1.223   8.832
 9613W        W16922  16.366   8.335   6.466
 9614W        W16923   1.233   8.376   0.755
 9615W        W16924  13.911   7.863   0.274
 9616W        W16925  10.016   7.898   8.364
 9617W        W16926  15.384   1.235   7.898
 9618W        W16927  16.388   1.236   9.777
 9619W        W16928   9.068   4.555   8.845
 9620W        W16929  13.453   4.549   7.881
 9621W        W16930   2.227   0.245   9.777
 9622W        W16931   4.167   0.267   0.732
 9623W        W16932  14.901   4.542   9.322
 9624W        W16933  13.938   2.144   9.786
 9625W        W16934   6.593   7.416   7.397
 9626W        W16935  18.296   3.589   7.888
 9627W        W16936  17.341   7.901   9.332
 9628W        W16937  16.855   1.226   8.374
 9629W        W16938  12.473   3.581   8.832
 9630W        W16939   0.253   5.491   9.774
 9631W        W16940  18.809   5.993   7.898
 9632W        W16941   8.086   6.436   9.332
 9633W        W16942  15.377   0.722   7.891
 9634W        W16943  10.036   1.698   6.449
 9635W        W16944  16.869   3.612   9.321
 9636W        W16945   3.671   1.205   0.727
 9637W        W16946  18.337   0.270   9.311
 9638W        W16947  17.831   6.462   9.313
 9639W        W16948  13.439   3.101   5.998
 9640W        W16949  13.938   6.911   0.738
 9641W        W16950   4.182   7.898   0.260
 9642W        W16951   0.277   8.338   8.811
 9643W        W16952  11.474   1.684   7.385
 9644W        W16953  10.488   5.487   6.450
 9645W        W16954   7.108   5.492   7.896
 9646W        W16955   6.116   1.196   8.832
 9647W        W16956  11.007   8.840   8.338
 9648W        W16957  14.395   0.273   0.728
 9649W        W16958   8.067   8.339   9.292
 9650W        W16959   8.052   4.555   6.948
 9651W        W16960  13.445   4.084   8.334
 9652W        W16961   2.709   5.495   6.924
 9653W        W16962  11.490   7.393   7.401
 9654W        W16963   9.552   4.077   6.458
 9655W        W16964  14.908   0.728   0.278
 9656W        W16965   8.079   3.096   6.462
 9657W        W16966   7.569   7.869   9.305
 9658W        W16967   4.664   0.737   0.725
 9659W        W16968  13.915   5.038   0.723
 9660W        W16969  18.308   5.991   7.389
 9661W        W16970  15.868   4.060   6.922
 9662W        W16971   4.160   2.171   9.296
 9663W        W16972  10.488   0.264   6.467
 9664W        W16973   1.247   4.060   7.863
 9665W        W16974   8.571   9.300   9.773
 9666W        W16975  10.992   7.901   9.775
 9667W        W16976  16.865   3.588   0.252
 9668W        W16977  15.373   5.020   8.825
 9669W        W16978  16.864   0.272   0.741
 9670W        W16979  19.301   6.945   5.974
 9671W        W16980  17.329   2.187   9.785
 9672W        W16981  17.325   7.420   9.774
 9673W        W16982  17.330   0.719   8.840
 9674W        W16983  15.902   8.818   6.446
 9675W        W16984  10.536   5.996   7.402
 9676W        W16985  16.856   4.530   0.718
 9677W        W16986  11.997   6.441   8.840
 9678W        W16987   5.651   9.298   5.976
 9679W        W16988   4.667   5.985   6.948
 9680W        W16989   6.601   9.767   8.380
 9681W        W16990  14.890   5.489   7.860
 9682W        W16991   5.155   9.293   8.365
 9683W        W16992  10.009   1.683   0.756
 9684W        W16993  14.919   5.995   6.930
 9685W        W16994  16.364   4.553   5.980
 9686W        W16995   2.207   8.824   0.268
 9687W        W16996  18.823   6.950   0.743
 9688W        W16997  15.400   7.893   6.919
 9689W        W16998   7.086   8.362   9.798
 9690W        W16999   2.689   5.022   7.870
 9691W        W17000   3.679   3.101   9.781
 9692W        W17001  12.475   9.795   6.948
 9693W        W17002  10.021   5.488   8.843
 9694W        W17003  15.888   7.904   7.864
 9695W        W17004   0.750   3.122   6.448
 9696W        W17005   4.153   4.093   0.258
 9697W        W17006   3.185   3.096   5.979
 9698W        W17007   3.692   8.852   0.729
 9699NA      NA17008  15.373   5.953   8.821
 9700NA      NA17009  16.843   6.461   9.306
 9701NA      NA17010   5.658   3.132   8.839
  20.00000  10.00000  10.00000
