Protein in INSANE! Membrane UpperLeaflet>DOPC=1 LowerLeaflet>DOPC=1
17010
    1PF10C   C1    1  10.192   3.995   5.307
    1PF10C   F2    2  10.144   3.767   5.281
    1PF10C   F3    3  10.147   3.722   5.497
    1PF10C   F4    4  10.102   3.496   5.492
    1PF10C   F5    5   9.958   3.501   5.658
    1PF10C   F6    6  10.032   3.310   5.762
    1PF10C   F7    7  10.008   3.387   5.966
    1PF10C   F8    8   9.923   3.193   6.056
    1PF10C   F9    9   9.762   3.292   6.169
    1PF10C  F10   10   9.677   3.405   5.988
    2PF10C   C1   11  11.360   5.431   5.846
    2PF10C   F2   12  11.305   5.272   6.010
    2PF10C   F3   13  11.507   5.187   6.025
    2PF10C   F4   14  11.498   5.099   6.237
    2PF10C   F5   15  11.701   5.163   6.291
    2PF10C   F6   16  11.754   4.977   6.415
    2PF10C   F7   17  11.868   5.090   6.566
    2PF10C   F8   18  11.789   4.979   6.751
    2PF10C   F9   19  11.768   5.160   6.874
    2PF10C  F10   20  11.711   5.052   7.068
    3PF10C   C1   21   8.397   7.420   4.623
    3PF10C   F2   22   8.394   7.274   4.807
    3PF10C   F3   23   8.572   7.158   4.750
    3PF10C   F4   24   8.548   6.975   4.886
    3PF10C   F5   25   8.761   6.953   4.940
    3PF10C   F6   26   8.725   6.887   5.157
    3PF10C   F7   27   8.879   6.729   5.157
    3PF10C   F8   28   8.953   6.762   5.372
    3PF10C   F9   29   8.982   6.548   5.416
    3PF10C  F10   30   9.014   6.570   5.643
    4DOPC   NC3   31   0.771   5.627   5.881
    4DOPC   PO4   32   1.039   5.413   5.656
    4DOPC   GL1   33   1.179   5.475   5.219
    4DOPC   GL2   34   1.461   5.550   5.313
    4DOPC   C1A   35   1.226   5.459   4.767
    4DOPC   D2A   36   1.148   5.580   4.275
    4DOPC   C3A   37   0.830   5.570   3.913
    4DOPC   C4A   38   0.795   5.661   3.420
    4DOPC   C1B   39   1.638   5.777   4.951
    4DOPC   D2B   40   1.740   6.041   4.517
    4DOPC   C3B   41   1.478   6.036   4.112
    4DOPC   C4B   42   1.125   5.945   3.764
    5DOPC   NC3   43  10.346   3.940   6.058
    5DOPC   PO4   44  10.522   3.852   5.704
    5DOPC   GL1   45  10.508   3.643   5.284
    5DOPC   GL2   46  10.817   3.657   5.302
    5DOPC   C1A   47  10.409   3.533   4.828
    5DOPC   D2A   48  10.404   3.485   4.307
    5DOPC   C3A   49  10.323   3.611   3.833
    5DOPC   C4A   50  10.016   3.798   3.464
    5DOPC   C1B   51  10.913   3.436   4.914
    5DOPC   D2B   52  10.832   3.210   4.461
    5DOPC   C3B   53  10.752   3.298   3.989
    5DOPC   C4B   54  10.733   3.427   3.510
    6DOPC   NC3   55  15.129   9.094   5.824
    6DOPC   PO4   56  14.858   9.345   5.652
    6DOPC   GL1   57  14.956   9.262   5.201
    6DOPC   GL2   58  14.992   8.980   5.322
    6DOPC   C1A   59  14.966   9.176   4.744
    6DOPC   D2A   60  14.967   8.979   4.268
    6DOPC   C3A   61  15.126   9.005   3.827
    6DOPC   C4A   62  15.479   9.254   3.576
    6DOPC   C1B   63  15.034   8.719   4.958
    6DOPC   D2B   64  15.097   8.517   4.501
    6DOPC   C3B   65  14.839   8.462   4.110
    6DOPC   C4B   66  14.470   8.462   3.775
    7DOPC   NC3   67  15.866   7.887   5.842
    7DOPC   PO4   68  16.251   7.769   5.777
    7DOPC   GL1   69  16.103   7.550   5.488
    7DOPC   GL2   70  15.803   7.609   5.470
    7DOPC   C1A   71  16.195   7.731   5.101
    7DOPC   D2A   72  16.109   7.621   4.628
    7DOPC   C3A   73  16.168   7.816   4.203
    7DOPC   C4A   74  16.249   8.039   3.761
    7DOPC   C1B   75  15.693   7.820   5.074
    7DOPC   D2B   76  15.666   7.880   4.559
    7DOPC   C3B   77  15.842   8.203   4.243
    7DOPC   C4B   78  16.012   8.489   3.859
    8DOPC   NC3   79   1.050   4.802   5.723
    8DOPC   PO4   80   0.705   4.991   5.673
    8DOPC   GL1   81   0.788   5.104   5.255
    8DOPC   GL2   82   1.070   5.066   5.339
    8DOPC   C1A   83   0.838   5.115   4.805
    8DOPC   D2A   84   0.816   5.181   4.291
    8DOPC   C3A   85   0.892   5.090   3.813
    8DOPC   C4A   86   0.905   5.112   3.298
    8DOPC   C1B   87   1.362   5.028   5.020
    8DOPC   D2B   88   1.704   5.201   4.694
    8DOPC   C3B   89   1.622   5.343   4.247
    8DOPC   C4B   90   1.379   5.449   3.827
    9DOPC   NC3   91  12.860   9.140   6.111
    9DOPC   PO4   92  12.930   9.011   5.741
    9DOPC   GL1   93  12.822   9.199   5.361
    9DOPC   GL2   94  12.591   9.015   5.321
    9DOPC   C1A   95  13.011   9.266   4.946
    9DOPC   D2A   96  13.143   9.331   4.460
    9DOPC   C3A   97  13.153   8.969   4.151
    9DOPC   C4A   98  13.188   8.633   3.785
    9DOPC   C1B   99  12.558   9.005   4.865
    9DOPC   D2B  100  12.697   9.054   4.382
    9DOPC   C3B  101  12.496   8.951   3.970
    9DOPC   C4B  102  12.259   9.006   3.541
   10DOPC   NC3  103   2.510   6.658   6.095
   10DOPC   PO4  104   2.637   6.314   5.940
   10DOPC   GL1  105   2.708   6.275   5.515
   10DOPC   GL2  106   3.010   6.301   5.547
   10DOPC   C1A  107   2.601   6.358   5.082
   10DOPC   D2A  108   2.700   6.403   4.572
   10DOPC   C3A  109   2.573   6.417   4.111
   10DOPC   C4A  110   2.343   6.311   3.686
   10DOPC   C1B  111   3.111   6.483   5.144
   10DOPC   D2B  112   3.162   6.661   4.667
   10DOPC   C3B  113   3.037   6.659   4.215
   10DOPC   C4B  114   2.942   6.580   3.736
   11DOPC   NC3  115  11.121   0.589   6.006
   11DOPC   PO4  116  10.821   0.378   5.853
   11DOPC   GL1  117  10.882   0.575   5.512
   11DOPC   GL2  118  11.186   0.537   5.498
   11DOPC   C1A  119  10.855   0.609   5.089
   11DOPC   D2A  120  11.015   0.580   4.610
   11DOPC   C3A  121  11.041   0.348   4.194
   11DOPC   C4A  122  10.961   0.034   3.818
   11DOPC   C1B  123  11.344   0.400   5.079
   11DOPC   D2B  124  11.427   0.224   4.596
   11DOPC   C3B  125  11.541   0.395   4.163
   11DOPC   C4B  126  11.534   0.695   3.771
   12DOPC   NC3  127  18.755   6.246   5.805
   12DOPC   PO4  128  19.123   6.185   5.651
   12DOPC   GL1  129  18.915   6.237   5.264
   12DOPC   GL2  130  18.742   6.013   5.391
   12DOPC   C1A  131  18.868   6.193   4.811
   12DOPC   D2A  132  18.815   6.222   4.317
   12DOPC   C3A  133  18.722   6.117   3.866
   12DOPC   C4A  134  18.615   6.102   3.374
   12DOPC   C1B  135  18.857   5.749   5.066
   12DOPC   D2B  136  18.941   5.672   4.575
   12DOPC   C3B  137  19.069   5.809   4.134
   12DOPC   C4B  138  19.309   6.026   3.757
   13DOPC   NC3  139   8.864   2.039   5.803
   13DOPC   PO4  140   8.476   2.033   5.712
   13DOPC   GL1  141   8.625   2.134   5.316
   13DOPC   GL2  142   8.760   1.858   5.353
   13DOPC   C1A  143   8.642   2.190   4.860
   13DOPC   D2A  144   8.582   2.294   4.359
   13DOPC   C3A  145   8.894   2.291   3.996
   13DOPC   C4A  146   9.204   2.143   3.619
   13DOPC   C1B  147   8.600   1.698   4.982
   13DOPC   D2B  148   8.572   1.762   4.498
   13DOPC   C3B  149   8.822   1.620   4.131
   13DOPC   C4B  150   8.811   1.397   3.681
   14DOPC   NC3  151   7.678   2.088   5.891
   14DOPC   PO4  152   7.618   1.694   5.963
   14DOPC   GL1  153   7.348   1.615   5.587
   14DOPC   GL2  154   7.354   1.920   5.601
   14DOPC   C1A  155   7.243   1.619   5.154
   14DOPC   D2A  156   7.331   1.752   4.686
   14DOPC   C3A  157   7.237   1.702   4.234
   14DOPC   C4A  158   7.104   1.790   3.781
   14DOPC   C1B  159   7.440   2.086   5.197
   14DOPC   D2B  160   7.692   2.178   4.759
   14DOPC   C3B  161   7.601   2.054   4.311
   14DOPC   C4B  162   7.611   1.899   3.842
   15DOPC   NC3  163  15.383   6.655   6.115
   15DOPC   PO4  164  15.498   6.535   5.751
   15DOPC   GL1  165  15.244   6.529   5.467
   15DOPC   GL2  166  15.038   6.722   5.599
   15DOPC   C1A  167  15.334   6.570   5.038
   15DOPC   D2A  168  15.375   6.674   4.557
   15DOPC   C3A  169  15.453   6.537   4.114
   15DOPC   C4A  170  15.371   6.418   3.644
   15DOPC   C1B  171  14.794   6.649   5.250
   15DOPC   D2B  172  14.829   6.628   4.757
   15DOPC   C3B  173  14.929   6.692   4.303
   15DOPC   C4B  174  15.032   6.770   3.827
   16DOPC   NC3  175  10.320   1.599   5.805
   16DOPC   PO4  176  10.575   1.369   5.587
   16DOPC   GL1  177  10.416   1.390   5.200
   16DOPC   GL2  178  10.313   1.664   5.311
   16DOPC   C1A  179  10.500   1.497   4.776
   16DOPC   D2A  180  10.608   1.737   4.334
   16DOPC   C3A  181  10.620   1.788   3.859
   16DOPC   C4A  182  10.489   1.706   3.384
   16DOPC   C1B  183  10.534   1.934   5.038
   16DOPC   D2B  184  10.882   1.981   4.674
   16DOPC   C3B  185  10.867   2.207   4.256
   16DOPC   C4B  186  10.747   2.342   3.800
   17DOPC   NC3  187   9.867   9.524   5.695
   17DOPC   PO4  188  10.260   9.512   5.598
   17DOPC   GL1  189  10.117   9.604   5.181
   17DOPC   GL2  190   9.848   9.684   5.252
   17DOPC   C1A  191  10.039   9.660   4.741
   17DOPC   D2A  192   9.780   9.521   4.337
   17DOPC   C3A  193   9.772   9.624   3.884
   17DOPC   C4A  194   9.879   9.875   3.484
   17DOPC   C1B  195   9.537   9.648   4.902
   17DOPC   D2B  196   9.181   9.763   4.558
   17DOPC   C3B  197   9.313   9.669   4.117
   17DOPC   C4B  198   9.296   9.355   3.733
   18DOPC   NC3  199  13.590   4.011   5.881
   18DOPC   PO4  200  13.947   4.111   5.732
   18DOPC   GL1  201  13.864   4.072   5.304
   18DOPC   GL2  202  13.581   3.985   5.392
   18DOPC   C1A  203  13.806   4.294   4.916
   18DOPC   D2A  204  13.784   4.301   4.418
   18DOPC   C3A  205  13.797   4.067   3.999
   18DOPC   C4A  206  13.739   3.910   3.520
   18DOPC   C1B  207  13.337   4.158   5.072
   18DOPC   D2B  208  13.272   4.320   4.602
   18DOPC   C3B  209  13.322   4.258   4.140
   18DOPC   C4B  210  13.356   4.211   3.657
   19DOPC   NC3  211   5.815   2.698   5.936
   19DOPC   PO4  212   6.036   2.396   5.792
   19DOPC   GL1  213   5.954   2.621   5.452
   19DOPC   GL2  214   5.640   2.664   5.479
   19DOPC   C1A  215   6.010   2.616   5.018
   19DOPC   D2A  216   5.859   2.602   4.525
   19DOPC   C3A  217   6.011   2.635   4.078
   19DOPC   C4A  218   6.113   2.623   3.594
   19DOPC   C1B  219   5.411   2.553   5.080
   19DOPC   D2B  220   5.342   2.445   4.571
   19DOPC   C3B  221   5.485   2.574   4.122
   19DOPC   C4B  222   5.692   2.895   3.781
   20DOPC   NC3  223  11.953   8.813   5.776
   20DOPC   PO4  224  11.688   8.521   5.686
   20DOPC   GL1  225  11.677   8.616   5.236
   20DOPC   GL2  226  11.820   8.872   5.317
   20DOPC   C1A  227  11.787   8.640   4.792
   20DOPC   D2A  228  11.935   8.704   4.311
   20DOPC   C3A  229  11.958   8.693   3.838
   20DOPC   C4A  230  11.884   8.714   3.358
   20DOPC   C1B  231  12.026   9.062   4.958
   20DOPC   D2B  232  12.207   9.157   4.496
   20DOPC   C3B  233  12.039   9.161   4.053
   20DOPC   C4B  234  11.778   9.148   3.631
   21DOPC   NC3  235   0.547   7.434   5.892
   21DOPC   PO4  236   0.487   7.804   5.750
   21DOPC   GL1  237   0.715   7.737   5.376
   21DOPC   GL2  238   0.665   7.427   5.413
   21DOPC   C1A  239   0.577   7.809   4.963
   21DOPC   D2A  240   0.443   7.817   4.497
   21DOPC   C3A  241   0.629   7.794   4.074
   21DOPC   C4A  242   0.305   7.570   3.817
   21DOPC   C1B  243   0.542   7.286   4.996
   21DOPC   D2B  244   0.424   7.276   4.509
   21DOPC   C3B  245   0.543   7.174   4.067
   21DOPC   C4B  246   0.521   6.955   3.629
   22DOPC   NC3  247   7.322   3.747   5.671
   22DOPC   PO4  248   6.994   3.530   5.734
   22DOPC   GL1  249   6.975   3.674   5.341
   22DOPC   GL2  250   7.153   3.421   5.272
   22DOPC   C1A  251   6.965   3.710   4.914
   22DOPC   D2A  252   7.084   3.530   4.464
   22DOPC   C3A  253   7.104   3.532   4.004
   22DOPC   C4A  254   6.899   3.816   3.668
   22DOPC   C1B  255   7.396   3.463   4.893
   22DOPC   D2B  256   7.576   3.675   4.481
   22DOPC   C3B  257   7.608   3.409   4.097
   22DOPC   C4B  258   7.526   3.024   3.788
   23DOPC   NC3  259  14.577   2.665   5.620
   23DOPC   PO4  260  14.221   2.563   5.775
   23DOPC   GL1  261  14.083   2.644   5.373
   23DOPC   GL2  262  14.145   2.934   5.433
   23DOPC   C1A  263  14.233   2.607   4.940
   23DOPC   D2A  264  14.209   2.537   4.437
   23DOPC   C3A  265  14.237   2.661   3.987
   23DOPC   C4A  266  14.495   2.596   3.570
   23DOPC   C1B  267  14.347   3.121   5.085
   23DOPC   D2B  268  14.512   3.236   4.623
   23DOPC   C3B  269  14.338   3.165   4.193
   23DOPC   C4B  270  14.185   3.126   3.714
   24DOPC   NC3  271   1.024   7.362   6.045
   24DOPC   PO4  272   0.985   7.603   5.733
   24DOPC   GL1  273   1.158   7.498   5.409
   24DOPC   GL2  274   1.235   7.223   5.462
   24DOPC   C1A  275   1.017   7.537   5.006
   24DOPC   D2A  276   0.867   7.538   4.523
   24DOPC   C3A  277   1.016   7.445   4.082
   24DOPC   C4A  278   1.178   7.673   3.675
   24DOPC   C1B  279   1.378   7.104   5.072
   24DOPC   D2B  280   1.553   6.988   4.615
   24DOPC   C3B  281   1.612   7.089   4.156
   24DOPC   C4B  282   1.422   7.225   3.718
   25DOPC   NC3  283   6.793   6.507   5.708
   25DOPC   PO4  284   6.913   6.895   5.698
   25DOPC   GL1  285   6.829   7.126   5.358
   25DOPC   GL2  286   6.933   7.388   5.475
   25DOPC   C1A  287   6.911   7.071   4.913
   25DOPC   D2A  288   6.926   6.918   4.424
   25DOPC   C3A  289   6.988   7.078   3.975
   25DOPC   C4A  290   6.961   7.363   3.557
   25DOPC   C1B  291   7.055   7.538   5.068
   25DOPC   D2B  292   7.114   7.428   4.572
   25DOPC   C3B  293   7.092   7.601   4.119
   25DOPC   C4B  294   7.195   7.842   3.687
   26DOPC   NC3  295  17.834   5.142   6.101
   26DOPC   PO4  296  17.980   4.963   5.770
   26DOPC   GL1  297  18.111   5.139   5.368
   26DOPC   GL2  298  18.253   4.883   5.287
   26DOPC   C1A  299  18.115   5.275   4.941
   26DOPC   D2A  300  18.136   5.450   4.464
   26DOPC   C3A  301  17.967   5.247   4.076
   26DOPC   C4A  302  17.662   5.048   3.734
   26DOPC   C1B  303  18.405   4.857   4.840
   26DOPC   D2B  304  18.492   4.801   4.333
   26DOPC   C3B  305  18.514   4.891   3.853
   26DOPC   C4B  306  18.433   4.830   3.350
   27DOPC   NC3  307  18.721   1.325   5.870
   27DOPC   PO4  308  18.610   1.004   5.664
   27DOPC   GL1  309  18.624   1.325   5.354
   27DOPC   GL2  310  18.927   1.371   5.456
   27DOPC   C1A  311  18.693   1.371   4.911
   27DOPC   D2A  312  18.849   1.507   4.456
   27DOPC   C3A  313  18.710   1.341   4.054
   27DOPC   C4A  314  18.622   1.118   3.625
   27DOPC   C1B  315  19.167   1.325   5.088
   27DOPC   D2B  316  19.275   1.234   4.600
   27DOPC   C3B  317  19.198   1.266   4.125
   27DOPC   C4B  318  19.087   1.358   3.644
   28DOPC   NC3  319   5.016   6.310   5.895
   28DOPC   PO4  320   4.698   6.514   5.745
   28DOPC   GL1  321   4.461   6.395   5.427
   28DOPC   GL2  322   4.176   6.381   5.532
   28DOPC   C1A  323   4.508   6.238   5.017
   28DOPC   D2A  324   4.444   6.066   4.557
   28DOPC   C3A  325   4.407   6.293   4.152
   28DOPC   C4A  326   4.497   6.570   3.742
   28DOPC   C1B  327   4.023   6.339   5.099
   28DOPC   D2B  328   3.943   6.214   4.601
   28DOPC   C3B  329   3.906   6.439   4.180
   28DOPC   C4B  330   3.906   6.700   3.757
   29DOPC   NC3  331  12.994   5.109   5.872
   29DOPC   PO4  332  12.796   5.458   5.825
   29DOPC   GL1  333  12.938   5.302   5.435
   29DOPC   GL2  334  12.679   5.140   5.452
   29DOPC   C1A  335  13.105   5.051   5.099
   29DOPC   D2A  336  13.259   4.872   4.648
   29DOPC   C3A  337  13.156   5.028   4.201
   29DOPC   C4A  338  13.002   5.058   3.724
   29DOPC   C1B  339  12.606   5.043   5.021
   29DOPC   D2B  340  12.770   5.018   4.541
   29DOPC   C3B  341  12.666   4.889   4.087
   29DOPC   C4B  342  12.459   4.806   3.638
   30DOPC   NC3  343   2.793   3.098   5.801
   30DOPC   PO4  344   2.401   3.210   5.753
   30DOPC   GL1  345   2.354   3.260   5.314
   30DOPC   GL2  346   2.460   3.553   5.340
   30DOPC   C1A  347   2.509   3.219   4.899
   30DOPC   D2A  348   2.760   3.355   4.486
   30DOPC   C3A  349   2.481   3.222   4.145
   30DOPC   C4A  350   2.239   3.216   3.723
   30DOPC   C1B  351   2.506   3.789   4.953
   30DOPC   D2B  352   2.601   4.005   4.497
   30DOPC   C3B  353   2.698   3.728   4.118
   30DOPC   C4B  354   2.932   3.338   3.897
   31DOPC   NC3  355   0.315   3.955   5.823
   31DOPC   PO4  356   0.220   4.307   5.991
   31DOPC   GL1  357   0.117   4.518   5.574
   31DOPC   GL2  358   0.139   4.237   5.504
   31DOPC   C1A  359   0.160   4.545   5.112
   31DOPC   D2A  360   0.369   4.476   4.645
   31DOPC   C3A  361   0.244   4.403   4.187
   31DOPC   C4A  362  19.989   4.400   3.745
   31DOPC   C1B  363   0.497   4.190   5.255
   31DOPC   D2B  364   0.736   4.147   4.813
   31DOPC   C3B  365   0.771   4.223   4.353
   31DOPC   C4B  366   0.868   4.265   3.872
   32DOPC   NC3  367   3.515   2.272   6.014
   32DOPC   PO4  368   3.730   2.324   5.681
   32DOPC   GL1  369   3.684   2.167   5.291
   32DOPC   GL2  370   3.860   1.918   5.371
   32DOPC   C1A  371   3.609   2.176   4.844
   32DOPC   D2A  372   3.292   2.096   4.452
   32DOPC   C3A  373   3.303   1.997   3.990
   32DOPC   C4A  374   3.684   1.822   3.730
   32DOPC   C1B  375   3.973   1.794   4.958
   32DOPC   D2B  376   3.959   1.764   4.461
   32DOPC   C3B  377   3.780   2.093   4.174
   32DOPC   C4B  378   3.601   2.376   3.802
   33DOPC   NC3  379   8.526   0.394   5.757
   33DOPC   PO4  380   8.473   0.787   5.663
   33DOPC   GL1  381   8.451   0.754   5.207
   33DOPC   GL2  382   8.620   0.503   5.289
   33DOPC   C1A  383   8.530   0.708   4.769
   33DOPC   D2A  384   8.723   0.475   4.363
   33DOPC   C3A  385   8.694   0.595   3.908
   33DOPC   C4A  386   8.678   0.499   3.421
   33DOPC   C1B  387   8.892   0.376   4.960
   33DOPC   D2B  388   9.190   0.278   4.560
   33DOPC   C3B  389   9.061   0.144   4.126
   33DOPC   C4B  390   8.751   0.118   3.738
   34DOPC   NC3  391  10.412   6.556   5.962
   34DOPC   PO4  392  10.389   6.201   5.770
   34DOPC   GL1  393  10.770   6.250   5.555
   34DOPC   GL2  394  10.792   6.552   5.587
   34DOPC   C1A  395  10.684   6.222   5.115
   34DOPC   D2A  396  10.651   6.278   4.609
   34DOPC   C3A  397  10.640   6.268   4.123
   34DOPC   C4A  398  10.782   6.471   3.685
   34DOPC   C1B  399  10.836   6.701   5.134
   34DOPC   D2B  400  10.877   6.753   4.619
   34DOPC   C3B  401  10.764   6.759   4.149
   34DOPC   C4B  402  10.486   6.883   3.733
   35DOPC   NC3  403  11.092   1.436   5.805
   35DOPC   PO4  404  10.812   1.714   5.888
   35DOPC   GL1  405  10.770   1.778   5.450
   35DOPC   GL2  406  11.041   1.938   5.488
   35DOPC   C1A  407  10.933   1.627   5.058
   35DOPC   D2A  408  11.301   1.709   4.707
   35DOPC   C3A  409  11.154   1.781   4.256
   35DOPC   C4A  410  11.128   1.972   3.785
   35DOPC   C1B  411  11.211   2.064   5.088
   35DOPC   D2B  412  11.333   2.219   4.621
   35DOPC   C3B  413  11.401   2.217   4.165
   35DOPC   C4B  414  11.577   2.348   3.738
   36DOPC   NC3  415  17.757   7.848   6.006
   36DOPC   PO4  416  17.864   7.716   5.642
   36DOPC   GL1  417  18.076   7.812   5.255
   36DOPC   GL2  418  18.255   7.984   5.451
   36DOPC   C1A  419  18.058   7.971   4.805
   36DOPC   D2A  420  18.005   8.153   4.309
   36DOPC   C3A  421  17.969   8.058   3.826
   36DOPC   C4A  422  17.879   7.904   3.340
   36DOPC   C1B  423  18.496   8.085   5.100
   36DOPC   D2B  424  18.668   7.983   4.640
   36DOPC   C3B  425  18.536   8.090   4.216
   36DOPC   C4B  426  18.433   8.318   3.800
   37DOPC   NC3  427  17.275   1.196   6.258
   37DOPC   PO4  428  17.343   1.153   5.863
   37DOPC   GL1  429  17.558   1.333   5.527
   37DOPC   GL2  430  17.746   1.077   5.507
   37DOPC   C1A  431  17.413   1.405   5.091
   37DOPC   D2A  432  17.383   1.571   4.607
   37DOPC   C3A  433  17.259   1.466   4.155
   37DOPC   C4A  434  16.948   1.182   3.881
   37DOPC   C1B  435  17.699   0.972   5.060
   37DOPC   D2B  436  17.646   0.934   4.563
   37DOPC   C3B  437  17.489   1.014   4.127
   37DOPC   C4B  438  17.411   1.237   3.684
   38DOPC   NC3  439  14.896   9.846   5.766
   38DOPC   PO4  440  14.521   9.752   5.656
   38DOPC   GL1  441  14.644   9.586   5.279
   38DOPC   GL2  442  14.908   9.694   5.320
   38DOPC   C1A  443  14.588   9.477   4.847
   38DOPC   D2A  444  14.571   9.302   4.379
   38DOPC   C3A  445  14.825   9.416   3.991
   38DOPC   C4A  446  14.696   9.474   3.515
   38DOPC   C1B  447  14.890   9.922   4.952
   38DOPC   D2B  448  15.009   0.146   4.517
   38DOPC   C3B  449  15.124   9.838   4.183
   38DOPC   C4B  450  15.335   9.403   4.067
   39DOPC   NC3  451  15.795   6.890   5.891
   39DOPC   PO4  452  16.149   6.839   5.743
   39DOPC   GL1  453  15.974   6.509   5.496
   39DOPC   GL2  454  15.772   6.730   5.430
   39DOPC   C1A  455  15.956   6.356   5.067
   39DOPC   D2A  456  16.092   6.231   4.591
   39DOPC   C3A  457  15.995   6.394   4.155
   39DOPC   C4A  458  15.862   6.558   3.709
   39DOPC   C1B  459  15.818   6.831   5.005
   39DOPC   D2B  460  15.877   6.723   4.526
   39DOPC   C3B  461  15.870   6.917   4.106
   39DOPC   C4B  462  16.050   7.057   3.673
   40DOPC   NC3  463  19.221   8.932   5.709
   40DOPC   PO4  464  18.995   8.617   5.639
   40DOPC   GL1  465  18.830   8.854   5.333
   40DOPC   GL2  466  18.992   9.114   5.347
   40DOPC   C1A  467  18.837   8.795   4.893
   40DOPC   D2A  468  19.083   8.948   4.496
   40DOPC   C3A  469  18.950   8.814   4.078
   40DOPC   C4A  470  18.612   8.798   3.727
   40DOPC   C1B  471  19.014   9.260   4.917
   40DOPC   D2B  472  18.832   9.376   4.457
   40DOPC   C3B  473  18.999   9.315   4.018
   40DOPC   C4B  474  19.166   9.026   3.638
   41DOPC   NC3  475  17.523   0.266   5.746
   41DOPC   PO4  476  17.655   0.611   5.599
   41DOPC   GL1  477  17.413   0.438   5.303
   41DOPC   GL2  478  17.162   0.471   5.491
   41DOPC   C1A  479  17.409   0.540   4.865
   41DOPC   D2A  480  17.384   0.537   4.358
   41DOPC   C3A  481  17.383   0.235   3.998
   41DOPC   C4A  482  17.602   9.973   3.641
   41DOPC   C1B  483  17.131   0.827   5.232
   41DOPC   D2B  484  17.166   1.023   4.766
   41DOPC   C3B  485  17.041   0.906   4.318
   41DOPC   C4B  486  17.180   0.715   3.869
   42DOPC   NC3  487   0.744   8.225   5.845
   42DOPC   PO4  488   0.714   8.216   5.453
   42DOPC   GL1  489   0.493   8.460   5.179
   42DOPC   GL2  490   0.250   8.268   5.229
   42DOPC   C1A  491   0.578   8.370   4.740
   42DOPC   D2A  492   0.447   8.278   4.246
   42DOPC   C3A  493   0.594   8.237   3.793
   42DOPC   C4A  494   0.958   8.097   3.487
   42DOPC   C1B  495   0.138   8.099   4.819
   42DOPC   D2B  496   0.009   8.002   4.332
   42DOPC   C3B  497   0.097   8.063   3.870
   42DOPC   C4B  498   0.142   8.205   3.392
   43DOPC   NC3  499   1.693   2.031   5.922
   43DOPC   PO4  500   1.579   1.679   5.766
   43DOPC   GL1  501   1.740   1.900   5.416
   43DOPC   GL2  502   2.022   1.952   5.556
   43DOPC   C1A  503   1.766   2.010   4.961
   43DOPC   D2A  504   1.770   2.125   4.460
   43DOPC   C3A  505   1.691   2.094   3.984
   43DOPC   C4A  506   1.714   2.049   3.479
   43DOPC   C1B  507   2.250   2.103   5.176
   43DOPC   D2B  508   2.246   2.283   4.680
   43DOPC   C3B  509   2.212   2.194   4.198
   43DOPC   C4B  510   2.163   1.946   3.757
   44DOPC   NC3  511  12.984   0.622   5.911
   44DOPC   PO4  512  12.588   0.539   5.904
   44DOPC   GL1  513  12.572   0.561   5.489
   44DOPC   GL2  514  12.781   0.793   5.514
   44DOPC   C1A  515  12.463   0.487   5.067
   44DOPC   D2A  516  12.379   0.434   4.575
   44DOPC   C3A  517  12.432   0.442   4.104
   44DOPC   C4A  518  12.399   0.428   3.605
   44DOPC   C1B  519  12.824   0.833   5.099
   44DOPC   D2B  520  12.817   0.679   4.629
   44DOPC   C3B  521  12.874   0.315   4.335
   44DOPC   C4B  522  12.848   0.257   3.838
   45DOPC   NC3  523   6.152   6.653   6.106
   45DOPC   PO4  524   6.474   6.818   5.961
   45DOPC   GL1  525   6.479   6.885   5.519
   45DOPC   GL2  526   6.387   6.602   5.504
   45DOPC   C1A  527   6.441   7.029   5.107
   45DOPC   D2A  528   6.459   7.032   4.608
   45DOPC   C3A  529   6.457   6.726   4.240
   45DOPC   C4A  530   6.454   6.590   3.756
   45DOPC   C1B  531   6.454   6.334   5.154
   45DOPC   D2B  532   6.408   6.163   4.667
   45DOPC   C3B  533   6.421   6.168   4.184
   45DOPC   C4B  534   6.372   6.078   3.704
   46DOPC   NC3  535  12.343   5.583   6.065
   46DOPC   PO4  536  12.252   5.616   5.680
   46DOPC   GL1  537  12.591   5.587   5.396
   46DOPC   GL2  538  12.670   5.862   5.496
   46DOPC   C1A  539  12.715   5.540   4.956
   46DOPC   D2A  540  12.740   5.524   4.442
   46DOPC   C3A  541  12.704   5.426   3.970
   46DOPC   C4A  542  12.579   5.300   3.491
   46DOPC   C1B  543  12.895   5.996   5.127
   46DOPC   D2B  544  13.003   5.931   4.628
   46DOPC   C3B  545  12.866   5.931   4.159
   46DOPC   C4B  546  12.840   6.010   3.662
   47DOPC   NC3  547   7.608   1.227   5.740
   47DOPC   PO4  548   7.215   1.166   5.668
   47DOPC   GL1  549   7.249   1.162   5.220
   47DOPC   GL2  550   7.524   1.294   5.288
   47DOPC   C1A  551   7.221   1.247   4.759
   47DOPC   D2A  552   7.087   1.100   4.299
   47DOPC   C3A  553   7.153   1.068   3.829
   47DOPC   C4A  554   7.290   1.016   3.355
   47DOPC   C1B  555   7.673   1.425   4.897
   47DOPC   D2B  556   7.692   1.128   4.503
   47DOPC   C3B  557   7.547   1.292   4.095
   47DOPC   C4B  558   7.475   1.433   3.630
   48DOPC   NC3  559   6.378   9.474   5.957
   48DOPC   PO4  560   6.062   9.376   5.714
   48DOPC   GL1  561   6.007   9.433   5.270
   48DOPC   GL2  562   6.138   9.723   5.290
   48DOPC   C1A  563   6.199   9.332   4.870
   48DOPC   D2A  564   6.386   9.251   4.406
   48DOPC   C3A  565   6.223   9.402   3.995
   48DOPC   C4A  566   6.154   9.773   3.672
   48DOPC   C1B  567   6.377   9.822   4.895
   48DOPC   D2B  568   6.605   9.729   4.437
   48DOPC   C3B  569   6.588   9.817   3.966
   48DOPC   C4B  570   6.632   9.761   3.465
   49DOPC   NC3  571  14.605   4.838   5.884
   49DOPC   PO4  572  14.523   5.231   5.830
   49DOPC   GL1  573  14.276   5.380   5.510
   49DOPC   GL2  574  14.124   5.096   5.565
   49DOPC   C1A  575  14.382   5.425   5.078
   49DOPC   D2A  576  14.506   5.440   4.581
   49DOPC   C3A  577  14.443   5.320   4.116
   49DOPC   C4A  578  14.427   5.140   3.643
   49DOPC   C1B  579  13.994   5.058   5.148
   49DOPC   D2B  580  14.033   5.225   4.674
   49DOPC   C3B  581  14.035   5.003   4.250
   49DOPC   C4B  582  14.054   4.788   3.793
   50DOPC   NC3  583   3.515   9.630   5.793
   50DOPC   PO4  584   3.833   9.842   5.675
   50DOPC   GL1  585   3.785   9.702   5.257
   50DOPC   GL2  586   3.484   9.668   5.337
   50DOPC   C1A  587   3.819   9.751   4.804
   50DOPC   D2A  588   3.857   9.727   4.287
   50DOPC   C3A  589   3.795   9.785   3.811
   50DOPC   C4A  590   3.741   9.722   3.313
   50DOPC   C1B  591   3.288   9.754   4.976
   50DOPC   D2B  592   3.397   9.640   4.511
   50DOPC   C3B  593   3.390   9.626   4.054
   50DOPC   C4B  594   3.453   9.424   3.615
   51DOPC   NC3  595   9.414   6.321   6.160
   51DOPC   PO4  596   9.437   6.633   5.898
   51DOPC   GL1  597   9.332   6.819   5.459
   51DOPC   GL2  598   9.410   6.528   5.373
   51DOPC   C1A  599   9.226   6.918   5.021
   51DOPC   D2A  600   9.152   6.968   4.506
   51DOPC   C3A  601   9.208   7.136   4.046
   51DOPC   C4A  602   9.297   7.138   3.539
   51DOPC   C1B  603   9.690   6.450   4.996
   51DOPC   D2B  604  10.035   6.315   4.614
   51DOPC   C3B  605  10.111   6.294   4.129
   51DOPC   C4B  606  10.122   6.238   3.623
   52DOPC   NC3  607   1.338   4.042   5.620
   52DOPC   PO4  608   1.465   4.430   5.616
   52DOPC   GL1  609   1.067   4.389   5.430
   52DOPC   GL2  610   1.112   4.635   5.272
   52DOPC   C1A  611   1.141   4.064   5.110
   52DOPC   D2A  612   1.135   3.845   4.643
   52DOPC   C3A  613   1.157   3.913   4.169
   52DOPC   C4A  614   1.328   4.040   3.713
   52DOPC   C1B  615   1.178   4.518   4.845
   52DOPC   D2B  616   1.253   4.440   4.349
   52DOPC   C3B  617   1.185   4.650   3.931
   52DOPC   C4B  618   0.880   4.665   3.532
   53DOPC   NC3  619   4.511   5.199   5.821
   53DOPC   PO4  620   4.504   5.586   5.706
   53DOPC   GL1  621   4.507   5.457   5.303
   53DOPC   GL2  622   4.667   5.205   5.369
   53DOPC   C1A  623   4.293   5.359   4.915
   53DOPC   D2A  624   4.121   5.177   4.480
   53DOPC   C3A  625   4.221   5.331   4.052
   53DOPC   C4A  626   4.615   5.375   3.764
   53DOPC   C1B  627   4.541   4.907   5.038
   53DOPC   D2B  628   4.451   4.779   4.549
   53DOPC   C3B  629   4.443   4.850   4.062
   53DOPC   C4B  630   4.491   4.903   3.558
   54DOPC   NC3  631  17.450   4.874   5.786
   54DOPC   PO4  632  17.521   4.532   5.596
   54DOPC   GL1  633  17.815   4.750   5.379
   54DOPC   GL2  634  17.671   5.025   5.398
   54DOPC   C1A  635  17.917   4.767   4.956
   54DOPC   D2A  636  17.986   4.941   4.497
   54DOPC   C3A  637  17.586   4.931   4.236
   54DOPC   C4A  638  17.259   4.747   3.888
   54DOPC   C1B  639  17.618   5.209   4.983
   54DOPC   D2B  640  17.636   5.396   4.505
   54DOPC   C3B  641  17.450   5.394   4.067
   54DOPC   C4B  642  17.173   5.217   3.693
   55DOPC   NC3  643   8.758   4.530   5.819
   55DOPC   PO4  644   8.397   4.548   5.638
   55DOPC   GL1  645   8.530   4.467   5.249
   55DOPC   GL2  646   8.742   4.289   5.405
   55DOPC   C1A  647   8.529   4.488   4.790
   55DOPC   D2A  648   8.534   4.482   4.277
   55DOPC   C3A  649   8.492   4.059   4.099
   55DOPC   C4A  650   8.337   3.650   3.894
   55DOPC   C1B  651   8.910   4.200   5.023
   55DOPC   D2B  652   8.814   4.131   4.538
   55DOPC   C3B  653   8.985   4.151   4.110
   55DOPC   C4B  654   8.747   4.155   3.676
   56DOPC   NC3  655   7.417   2.816   5.836
   56DOPC   PO4  656   7.302   2.438   5.826
   56DOPC   GL1  657   7.196   2.492   5.404
   56DOPC   GL2  658   7.120   2.791   5.476
   56DOPC   C1A  659   7.392   2.540   4.988
   56DOPC   D2A  660   7.445   2.649   4.487
   56DOPC   C3A  661   7.501   2.551   4.023
   56DOPC   C4A  662   7.549   2.586   3.533
   56DOPC   C1B  663   7.020   2.943   5.073
   56DOPC   D2B  664   7.201   3.061   4.622
   56DOPC   C3B  665   7.165   2.952   4.164
   56DOPC   C4B  666   7.064   2.774   3.710
   57DOPC   NC3  667  11.984   8.071   5.818
   57DOPC   PO4  668  12.233   8.392   5.775
   57DOPC   GL1  669  12.078   8.495   5.396
   57DOPC   GL2  670  11.884   8.233   5.384
   57DOPC   C1A  671  12.244   8.586   4.987
   57DOPC   D2A  672  12.403   8.657   4.503
   57DOPC   C3A  673  12.319   8.419   4.098
   57DOPC   C4A  674  12.071   8.155   3.754
   57DOPC   C1B  675  11.713   8.175   4.974
   57DOPC   D2B  676  11.756   8.238   4.466
   57DOPC   C3B  677  11.658   8.322   4.006
   57DOPC   C4B  678  11.639   8.288   3.501
   58DOPC   NC3  679   3.528   3.248   6.134
   58DOPC   PO4  680   3.293   3.185   5.811
   58DOPC   GL1  681   3.300   2.952   5.426
   58DOPC   GL2  682   3.392   3.243   5.321
   58DOPC   C1A  683   3.392   2.902   4.999
   58DOPC   D2A  684   3.575   3.066   4.556
   58DOPC   C3A  685   3.406   3.268   4.156
   58DOPC   C4A  686   3.459   3.395   3.675
   58DOPC   C1B  687   3.304   3.390   4.884
   58DOPC   D2B  688   3.199   3.651   4.452
   58DOPC   C3B  689   3.219   3.752   3.984
   58DOPC   C4B  690   3.141   3.759   3.489
   59DOPC   NC3  691  16.744   0.527   5.851
   59DOPC   PO4  692  16.474   0.262   5.718
   59DOPC   GL1  693  16.480   0.387   5.307
   59DOPC   GL2  694  16.737   0.533   5.376
   59DOPC   C1A  695  16.520   0.316   4.865
   59DOPC   D2A  696  16.507   0.134   4.393
   59DOPC   C3A  697  16.417   0.209   3.935
   59DOPC   C4A  698  16.361   0.119   3.443
   59DOPC   C1B  699  16.984   0.332   5.073
   59DOPC   D2B  700  17.003   0.232   4.576
   59DOPC   C3B  701  16.894   0.367   4.123
   59DOPC   C4B  702  16.762   0.511   3.653
   60DOPC   NC3  703   7.685   5.080   5.941
   60DOPC   PO4  704   7.357   5.004   5.707
   60DOPC   GL1  705   7.279   5.173   5.294
   60DOPC   GL2  706   6.970   5.181   5.369
   60DOPC   C1A  707   7.378   5.160   4.832
   60DOPC   D2A  708   7.465   5.126   4.329
   60DOPC   C3A  709   7.513   5.320   3.884
   60DOPC   C4A  710   7.487   5.510   3.412
   60DOPC   C1B  711   6.892   5.086   4.937
   60DOPC   D2B  712   6.953   5.059   4.431
   60DOPC   C3B  713   7.108   5.023   3.980
   60DOPC   C4B  714   7.282   5.048   3.507
   61DOPC   NC3  715  18.617   8.833   5.909
   61DOPC   PO4  716  18.769   9.173   5.758
   61DOPC   GL1  717  18.563   9.293   5.408
   61DOPC   GL2  718  18.431   9.000   5.466
   61DOPC   C1A  719  18.519   9.216   4.982
   61DOPC   D2A  720  18.525   8.963   4.553
   61DOPC   C3A  721  18.517   9.126   4.130
   61DOPC   C4A  722  18.256   9.193   3.742
   61DOPC   C1B  723  18.419   8.687   5.140
   61DOPC   D2B  724  18.424   8.443   4.694
   61DOPC   C3B  725  18.350   8.584   4.239
   61DOPC   C4B  726  18.084   8.701   3.827
   62DOPC   NC3  727   0.391   6.816   5.816
   62DOPC   PO4  728   0.277   7.141   5.617
   62DOPC   GL1  729   0.305   6.938   5.233
   62DOPC   GL2  730   0.580   6.841   5.343
   62DOPC   C1A  731   0.235   6.881   4.775
   62DOPC   D2A  732   0.155   6.875   4.265
   62DOPC   C3A  733   0.072   6.671   3.836
   62DOPC   C4A  734   0.103   6.819   3.350
   62DOPC   C1B  735   0.699   6.751   4.933
   62DOPC   D2B  736   0.664   6.799   4.426
   62DOPC   C3B  737   0.609   6.604   3.987
   62DOPC   C4B  738   0.430   6.455   3.533
   63DOPC   NC3  739  12.238   9.737   5.654
   63DOPC   PO4  740  12.469   0.068   5.639
   63DOPC   GL1  741  12.572   0.045   5.204
   63DOPC   GL2  742  12.345   9.834   5.204
   63DOPC   C1A  743  12.569   0.011   4.757
   63DOPC   D2A  744  12.456   9.939   4.262
   63DOPC   C3A  745  12.219   9.717   3.896
   63DOPC   C4A  746  12.086   9.538   3.443
   63DOPC   C1B  747  12.179   9.676   4.797
   63DOPC   D2B  748  11.970   9.592   4.338
   63DOPC   C3B  749  11.605   9.435   4.067
   63DOPC   C4B  750  11.293   9.281   3.697
   64DOPC   NC3  751   9.881   8.292   5.766
   64DOPC   PO4  752   9.495   8.415   5.722
   64DOPC   GL1  753   9.586   8.672   5.345
   64DOPC   GL2  754   9.829   8.479   5.319
   64DOPC   C1A  755   9.502   8.729   4.900
   64DOPC   D2A  756   9.566   8.637   4.400
   64DOPC   C3A  757   9.416   8.475   3.981
   64DOPC   C4A  758   9.407   8.042   3.743
   64DOPC   C1B  759   9.838   8.324   4.886
   64DOPC   D2B  760   9.963   8.229   4.395
   64DOPC   C3B  761   9.890   8.068   3.946
   64DOPC   C4B  762   9.815   7.855   3.490
   65DOPC   NC3  763  13.994   5.929   6.093
   65DOPC   PO4  764  13.628   5.840   5.948
   65DOPC   GL1  765  13.612   5.588   5.580
   65DOPC   GL2  766  13.304   5.546   5.619
   65DOPC   C1A  767  13.741   5.623   5.137
   65DOPC   D2A  768  13.737   5.662   4.627
   65DOPC   C3A  769  13.714   5.882   4.199
   65DOPC   C4A  770  13.754   6.036   3.722
   65DOPC   C1B  771  13.213   5.555   5.176
   65DOPC   D2B  772  13.154   5.391   4.700
   65DOPC   C3B  773  13.231   5.580   4.278
   65DOPC   C4B  774  13.290   5.846   3.862
   66DOPC   NC3  775  15.291   2.774   5.852
   66DOPC   PO4  776  15.037   2.487   5.752
   66DOPC   GL1  777  15.175   2.589   5.360
   66DOPC   GL2  778  15.019   2.862   5.447
   66DOPC   C1A  779  15.113   2.521   4.902
   66DOPC   D2A  780  15.099   2.615   4.401
   66DOPC   C3A  781  15.123   2.623   3.922
   66DOPC   C4A  782  15.008   2.719   3.439
   66DOPC   C1B  783  14.740   2.792   5.117
   66DOPC   D2B  784  14.633   2.742   4.631
   66DOPC   C3B  785  14.698   2.811   4.163
   66DOPC   C4B  786  14.716   3.038   3.715
   67DOPC   NC3  787  16.150   9.922   5.968
   67DOPC   PO4  788  16.334   9.760   5.653
   67DOPC   GL1  789  16.254   9.535   5.288
   67DOPC   GL2  790  15.962   9.642   5.296
   67DOPC   C1A  791  16.255   9.610   4.851
   67DOPC   D2A  792  16.129   9.719   4.372
   67DOPC   C3A  793  16.151   9.739   3.893
   67DOPC   C4A  794  16.183   9.612   3.417
   67DOPC   C1B  795  15.777   9.814   4.897
   67DOPC   D2B  796  15.585   9.972   4.453
   67DOPC   C3B  797  15.626   9.828   3.997
   67DOPC   C4B  798  15.689   9.721   3.515
   68DOPC   NC3  799   2.596   9.074   6.023
   68DOPC   PO4  800   2.256   9.051   5.810
   68DOPC   GL1  801   2.470   9.050   5.441
   68DOPC   GL2  802   2.697   9.207   5.562
   68DOPC   C1A  803   2.634   9.039   5.029
   68DOPC   D2A  804   2.751   8.999   4.542
   68DOPC   C3A  805   2.663   8.910   4.093
   68DOPC   C4A  806   2.552   8.790   3.625
   68DOPC   C1B  807   2.957   9.382   5.223
   68DOPC   D2B  808   3.125   9.291   4.750
   68DOPC   C3B  809   3.094   9.257   4.265
   68DOPC   C4B  810   3.039   9.126   3.773
   69DOPC   NC3  811   7.132   1.588   6.000
   69DOPC   PO4  812   6.850   1.563   5.711
   69DOPC   GL1  813   6.857   1.301   5.389
   69DOPC   GL2  814   6.614   1.136   5.485
   69DOPC   C1A  815   6.799   1.414   4.973
   69DOPC   D2A  816   6.821   1.611   4.513
   69DOPC   C3A  817   6.804   1.443   4.069
   69DOPC   C4A  818   6.648   1.135   3.717
   69DOPC   C1B  819   6.477   1.012   5.074
   69DOPC   D2B  820   6.573   1.119   4.582
   69DOPC   C3B  821   6.355   1.199   4.161
   69DOPC   C4B  822   6.158   1.312   3.711
   70DOPC   NC3  823  12.657   8.617   5.593
   70DOPC   PO4  824  13.028   8.610   5.431
   70DOPC   GL1  825  12.924   8.801   5.058
   70DOPC   GL2  826  12.678   8.624   5.109
   70DOPC   C1A  827  12.978   8.727   4.625
   70DOPC   D2A  828  12.812   8.593   4.161
   70DOPC   C3A  829  12.858   8.253   3.838
   70DOPC   C4A  830  13.010   7.783   3.771
   70DOPC   C1B  831  12.671   8.333   4.778
   70DOPC   D2B  832  12.690   8.110   4.324
   70DOPC   C3B  833  12.497   7.914   3.936
   70DOPC   C4B  834  12.409   7.921   3.447
   71DOPC   NC3  835   5.631   3.505   5.931
   71DOPC   PO4  836   5.456   3.837   5.781
   71DOPC   GL1  837   5.655   3.917   5.410
   71DOPC   GL2  838   5.924   3.835   5.557
   71DOPC   C1A  839   5.700   3.713   5.013
   71DOPC   D2A  840   5.825   3.382   4.649
   71DOPC   C3A  841   5.768   3.243   4.201
   71DOPC   C4A  842   5.513   3.382   3.806
   71DOPC   C1B  843   6.139   3.563   5.267
   71DOPC   D2B  844   6.300   3.390   4.821
   71DOPC   C3B  845   6.255   3.410   4.344
   71DOPC   C4B  846   6.136   3.410   3.849
   72DOPC   NC3  847  14.015   6.862   5.706
   72DOPC   PO4  848  14.388   6.981   5.655
   72DOPC   GL1  849  14.266   7.116   5.256
   72DOPC   GL2  850  14.538   7.243   5.267
   72DOPC   C1A  851  14.047   7.171   4.853
   72DOPC   D2A  852  14.033   7.387   4.399
   72DOPC   C3A  853  14.081   7.338   3.930
   72DOPC   C4A  854  14.128   7.275   3.435
   72DOPC   C1B  855  14.480   7.410   4.877
   72DOPC   D2B  856  14.424   7.724   4.500
   72DOPC   C3B  857  14.499   7.526   4.116
   72DOPC   C4B  858  14.566   7.272   3.715
   73DOPC   NC3  859  10.807   2.208   5.806
   73DOPC   PO4  860  11.048   2.527   5.788
   73DOPC   GL1  861  11.048   2.721   5.372
   73DOPC   GL2  862  10.987   2.412   5.318
   73DOPC   C1A  863  10.837   2.885   4.991
   73DOPC   D2A  864  10.590   2.753   4.559
   73DOPC   C3A  865  10.688   2.797   4.092
   73DOPC   C4A  866  10.806   2.885   3.610
   73DOPC   C1B  867  10.755   2.385   4.929
   73DOPC   D2B  868  10.443   2.218   4.556
   73DOPC   C3B  869  10.363   2.392   4.119
   73DOPC   C4B  870  10.338   2.605   3.656
   74DOPC   NC3  871   5.335   8.077   5.723
   74DOPC   PO4  872   5.052   8.361   5.694
   74DOPC   GL1  873   4.984   8.318   5.299
   74DOPC   GL2  874   5.141   8.064   5.253
   74DOPC   C1A  875   5.086   8.497   4.918
   74DOPC   D2A  876   5.063   8.719   4.476
   74DOPC   C3A  877   5.001   8.448   4.083
   74DOPC   C4A  878   4.862   8.327   3.605
   74DOPC   C1B  879   5.054   7.970   4.804
   74DOPC   D2B  880   4.981   7.845   4.310
   74DOPC   C3B  881   5.004   7.906   3.831
   74DOPC   C4B  882   5.274   8.084   3.422
   75DOPC   NC3  883   8.097   0.623   5.994
   75DOPC   PO4  884   7.977   0.891   5.715
   75DOPC   GL1  885   8.018   0.707   5.302
   75DOPC   GL2  886   8.179   0.480   5.427
   75DOPC   C1A  887   7.911   0.589   4.863
   75DOPC   D2A  888   7.823   0.640   4.367
   75DOPC   C3A  889   7.821   0.499   3.912
   75DOPC   C4A  890   7.811   0.488   3.413
   75DOPC   C1B  891   8.299   0.309   5.014
   75DOPC   D2B  892   8.250   0.334   4.500
   75DOPC   C3B  893   8.292   0.271   4.021
   75DOPC   C4B  894   8.272   0.198   3.523
   76DOPC   NC3  895   5.914   0.711   5.783
   76DOPC   PO4  896   6.222   0.547   5.577
   76DOPC   GL1  897   6.119   0.668   5.180
   76DOPC   GL2  898   5.874   0.827   5.319
   76DOPC   C1A  899   6.017   0.900   4.822
   76DOPC   D2A  900   5.720   1.039   4.435
   76DOPC   C3A  901   5.742   1.100   3.966
   76DOPC   C4A  902   5.749   1.061   3.470
   76DOPC   C1B  903   5.578   1.045   5.039
   76DOPC   D2B  904   5.459   1.429   4.726
   76DOPC   C3B  905   5.557   1.549   4.276
   76DOPC   C4B  906   5.712   1.642   3.816
   77DOPC   NC3  907   7.633   6.437   5.765
   77DOPC   PO4  908   7.289   6.571   5.600
   77DOPC   GL1  909   7.100   6.736   5.246
   77DOPC   GL2  910   6.811   6.681   5.276
   77DOPC   C1A  911   7.201   6.638   4.812
   77DOPC   D2A  912   7.289   6.546   4.319
   77DOPC   C3A  913   7.353   6.526   3.841
   77DOPC   C4A  914   7.300   6.408   3.359
   77DOPC   C1B  915   6.702   6.621   4.846
   77DOPC   D2B  916   6.806   6.385   4.436
   77DOPC   C3B  917   6.874   6.466   3.998
   77DOPC   C4B  918   6.947   6.728   3.582
   78DOPC   NC3  919   0.506   3.082   5.676
   78DOPC   PO4  920   0.128   2.986   5.707
   78DOPC   GL1  921   0.259   2.896   5.306
   78DOPC   GL2  922   0.371   2.641   5.451
   78DOPC   C1A  923   0.418   2.943   4.880
   78DOPC   D2A  924   0.600   2.994   4.409
   78DOPC   C3A  925   0.447   3.005   3.960
   78DOPC   C4A  926   0.221   3.058   3.516
   78DOPC   C1B  927   0.602   2.512   5.099
   78DOPC   D2B  928   0.512   2.475   4.625
   78DOPC   C3B  929   0.677   2.456   4.199
   78DOPC   C4B  930   0.481   2.474   3.750
   79DOPC   NC3  931   9.727   0.570   5.847
   79DOPC   PO4  932   9.941   0.805   5.599
   79DOPC   GL1  933   9.761   0.585   5.313
   79DOPC   GL2  934   9.869   0.306   5.335
   79DOPC   C1A  935   9.506   0.578   4.953
   79DOPC   D2A  936   9.635   0.535   4.476
   79DOPC   C3A  937   9.367   0.609   4.100
   79DOPC   C4A  938   9.155   0.444   3.691
   79DOPC   C1B  939   9.751   0.109   4.933
   79DOPC   D2B  940   9.631   0.005   4.444
   79DOPC   C3B  941   9.587   0.150   3.987
   79DOPC   C4B  942   9.622   0.311   3.507
   80DOPC   NC3  943   1.573   7.459   6.200
   80DOPC   PO4  944   1.465   7.407   5.816
   80DOPC   GL1  945   1.620   7.431   5.370
   80DOPC   GL2  946   1.690   7.128   5.427
   80DOPC   C1A  947   1.677   7.476   4.901
   80DOPC   D2A  948   1.825   7.488   4.401
   80DOPC   C3A  949   1.787   7.546   3.915
   80DOPC   C4A  950   1.623   7.629   3.443
   80DOPC   C1B  951   1.884   6.998   5.032
   80DOPC   D2B  952   2.068   7.062   4.567
   80DOPC   C3B  953   2.147   7.157   4.101
   80DOPC   C4B  954   2.353   7.171   3.639
   81DOPC   NC3  955  19.674   9.181   5.823
   81DOPC   PO4  956  19.966   9.080   5.563
   81DOPC   GL1  957  19.755   8.960   5.192
   81DOPC   GL2  958  19.513   9.070   5.370
   81DOPC   C1A  959  19.627   9.014   4.739
   81DOPC   D2A  960  19.448   9.297   4.340
   81DOPC   C3A  961  19.497   9.362   3.869
   81DOPC   C4A  962  19.622   9.197   3.411
   81DOPC   C1B  963  19.286   8.851   5.082
   81DOPC   D2B  964  19.313   8.544   4.686
   81DOPC   C3B  965  19.490   8.734   4.283
   81DOPC   C4B  966  19.642   8.867   3.830
   82DOPC   NC3  967   2.645   7.052   5.808
   82DOPC   PO4  968   2.838   6.717   5.699
   82DOPC   GL1  969   2.792   6.801   5.295
   82DOPC   GL2  970   2.633   7.062   5.345
   82DOPC   C1A  971   2.729   6.814   4.868
   82DOPC   D2A  972   2.565   6.910   4.408
   82DOPC   C3A  973   2.666   6.948   3.956
   82DOPC   C4A  974   2.851   7.059   3.500
   82DOPC   C1B  975   2.434   7.223   4.959
   82DOPC   D2B  976   2.338   7.489   4.534
   82DOPC   C3B  977   2.564   7.465   4.123
   82DOPC   C4B  978   2.857   7.514   3.728
   83DOPC   NC3  979   3.432   6.909   6.166
   83DOPC   PO4  980   3.132   7.064   5.950
   83DOPC   GL1  981   3.058   7.090   5.508
   83DOPC   GL2  982   3.230   6.855   5.455
   83DOPC   C1A  983   2.968   7.222   5.079
   83DOPC   D2A  984   2.819   7.313   4.602
   83DOPC   C3A  985   3.024   7.238   4.180
   83DOPC   C4A  986   3.287   7.219   3.760
   83DOPC   C1B  987   3.389   6.917   5.057
   83DOPC   D2B  988   3.307   7.148   4.620
   83DOPC   C3B  989   3.531   7.301   4.240
   83DOPC   C4B  990   3.807   7.206   3.847
   84DOPC   NC3  991  18.805   8.189   5.840
   84DOPC   PO4  992  19.055   7.879   5.821
   84DOPC   GL1  993  18.911   7.906   5.426
   84DOPC   GL2  994  18.939   8.205   5.385
   84DOPC   C1A  995  18.913   7.754   5.023
   84DOPC   D2A  996  18.967   7.567   4.567
   84DOPC   C3A  997  19.011   7.808   4.172
   84DOPC   C4A  998  19.313   7.918   3.811
   84DOPC   C1B  999  18.914   8.315   4.946
   84DOPC   D2B 1000  18.871   8.440   4.451
   84DOPC   C3B 1001  18.951   8.313   4.002
   84DOPC   C4B 1002  19.031   8.538   3.571
   85DOPC   NC3 1003  14.402   5.712   5.831
   85DOPC   PO4 1004  14.096   5.865   5.617
   85DOPC   GL1 1005  14.280   5.927   5.258
   85DOPC   GL2 1006  14.564   5.841   5.342
   85DOPC   C1A 1007  14.194   5.834   4.835
   85DOPC   D2A 1008  14.199   5.758   4.340
   85DOPC   C3A 1009  14.207   6.066   3.996
   85DOPC   C4A 1010  14.141   6.379   3.620
   85DOPC   C1B 1011  14.725   5.787   4.918
   85DOPC   D2B 1012  14.892   5.768   4.433
   85DOPC   C3B 1013  14.655   5.787   4.023
   85DOPC   C4B 1014  14.288   5.643   3.705
   86DOPC   NC3 1015   5.372   5.051   5.794
   86DOPC   PO4 1016   5.380   5.298   5.476
   86DOPC   GL1 1017   5.072   5.192   5.187
   86DOPC   GL2 1018   5.232   4.931   5.129
   86DOPC   C1A 1019   4.804   5.266   4.829
   86DOPC   D2A 1020   4.631   5.221   4.357
   86DOPC   C3A 1021   4.973   5.100   4.065
   86DOPC   C4A 1022   5.428   5.248   3.933
   86DOPC   C1B 1023   5.073   4.816   4.719
   86DOPC   D2B 1024   4.870   4.639   4.283
   86DOPC   C3B 1025   4.857   4.656   3.803
   86DOPC   C4B 1026   4.918   4.711   3.303
   87DOPC   NC3 1027   3.617   0.673   5.764
   87DOPC   PO4 1028   3.243   0.532   5.750
   87DOPC   GL1 1029   3.029   0.647   5.365
   87DOPC   GL2 1030   3.263   0.872   5.390
   87DOPC   C1A 1031   3.033   0.795   4.949
   87DOPC   D2A 1032   3.156   1.077   4.555
   87DOPC   C3A 1033   3.361   1.035   4.139
   87DOPC   C4A 1034   3.196   0.925   3.691
   87DOPC   C1B 1035   3.412   1.129   5.031
   87DOPC   D2B 1036   3.601   1.380   4.619
   87DOPC   C3B 1037   3.657   1.465   4.150
   87DOPC   C4B 1038   3.536   1.314   3.690
   88DOPC   NC3 1039   9.833   8.978   6.076
   88DOPC   PO4 1040   9.855   8.791   5.725
   88DOPC   GL1 1041  10.032   8.876   5.366
   88DOPC   GL2 1042  10.009   9.171   5.409
   88DOPC   C1A 1043  10.022   8.791   4.933
   88DOPC   D2A 1044  10.094   8.726   4.436
   88DOPC   C3A 1045   9.930   8.587   4.016
   88DOPC   C4A 1046   9.776   8.423   3.570
   88DOPC   C1B 1047   9.856   9.258   5.014
   88DOPC   D2B 1048   9.749   9.074   4.569
   88DOPC   C3B 1049   9.695   9.054   4.093
   88DOPC   C4B 1050   9.605   8.967   3.606
   89DOPC   NC3 1051  11.602   1.195   5.864
   89DOPC   PO4 1052  11.344   0.935   5.709
   89DOPC   GL1 1053  11.089   0.961   5.369
   89DOPC   GL2 1054  11.031   1.251   5.388
   89DOPC   C1A 1055  11.277   0.887   4.979
   89DOPC   D2A 1056  11.510   0.731   4.578
   89DOPC   C3A 1057  11.262   0.834   4.195
   89DOPC   C4A 1058  11.069   0.959   3.752
   89DOPC   C1B 1059  11.358   1.366   5.091
   89DOPC   D2B 1060  11.459   1.247   4.602
   89DOPC   C3B 1061  11.364   1.334   4.146
   89DOPC   C4B 1062  11.190   1.454   3.690
   90DOPC   NC3 1063  10.679   1.211   6.043
   90DOPC   PO4 1064  10.831   0.959   5.774
   90DOPC   GL1 1065  10.650   0.941   5.383
   90DOPC   GL2 1066  10.364   0.985   5.421
   90DOPC   C1A 1067  10.803   1.125   4.993
   90DOPC   D2A 1068  10.949   1.364   4.558
   90DOPC   C3A 1069  10.848   1.349   4.088
   90DOPC   C4A 1070  10.686   1.298   3.617
   90DOPC   C1B 1071  10.271   1.001   4.980
   90DOPC   D2B 1072  10.149   1.211   4.522
   90DOPC   C3B 1073  10.166   1.093   4.057
   90DOPC   C4B 1074  10.369   0.859   3.662
   91DOPC   NC3 1075   2.095   5.152   5.866
   91DOPC   PO4 1076   2.258   4.842   5.670
   91DOPC   GL1 1077   2.255   5.166   5.341
   91DOPC   GL2 1078   1.961   5.135   5.396
   91DOPC   C1A 1079   2.219   5.249   4.904
   91DOPC   D2A 1080   2.110   5.284   4.402
   91DOPC   C3A 1081   2.229   5.028   4.025
   91DOPC   C4A 1082   2.187   4.974   3.542
   91DOPC   C1B 1083   1.860   4.865   5.064
   91DOPC   D2B 1084   1.629   4.672   4.664
   91DOPC   C3B 1085   1.807   4.837   4.265
   91DOPC   C4B 1086   1.752   5.046   3.818
   92DOPC   NC3 1087   8.837   5.151   5.799
   92DOPC   PO4 1088   9.120   4.872   5.738
   92DOPC   GL1 1089   8.941   4.688   5.358
   92DOPC   GL2 1090   8.693   4.852   5.446
   92DOPC   C1A 1091   8.987   4.687   4.886
   92DOPC   D2A 1092   9.000   4.646   4.364
   92DOPC   C3A 1093   8.922   4.592   3.877
   92DOPC   C4A 1094   8.923   4.519   3.370
   92DOPC   C1B 1095   8.565   4.940   5.034
   92DOPC   D2B 1096   8.524   4.930   4.523
   92DOPC   C3B 1097   8.660   4.975   4.063
   92DOPC   C4B 1098   8.770   4.993   3.563
   93DOPC   NC3 1099   2.601   5.052   5.970
   93DOPC   PO4 1100   2.558   5.309   5.667
   93DOPC   GL1 1101   2.639   4.955   5.413
   93DOPC   GL2 1102   2.831   5.119   5.258
   93DOPC   C1A 1103   2.411   4.801   5.054
   93DOPC   D2A 1104   2.338   4.875   4.562
   93DOPC   C3A 1105   2.698   4.998   4.270
   93DOPC   C4A 1106   2.933   5.076   3.828
   93DOPC   C1B 1107   2.734   5.094   4.819
   93DOPC   D2B 1108   2.557   5.473   4.561
   93DOPC   C3B 1109   2.509   5.445   4.112
   93DOPC   C4B 1110   2.517   5.351   3.649
   94DOPC   NC3 1111   7.443   5.927   6.305
   94DOPC   PO4 1112   7.456   5.979   5.907
   94DOPC   GL1 1113   7.110   6.124   5.593
   94DOPC   GL2 1114   7.146   5.806   5.569
   94DOPC   C1A 1115   6.972   6.228   5.168
   94DOPC   D2A 1116   7.126   6.102   4.704
   94DOPC   C3A 1117   7.185   6.055   4.231
   94DOPC   C4A 1118   7.366   5.833   3.829
   94DOPC   C1B 1119   7.095   5.613   5.163
   94DOPC   D2B 1120   7.080   5.531   4.667
   94DOPC   C3B 1121   7.097   5.517   4.195
   94DOPC   C4B 1122   7.025   5.463   3.710
   95DOPC   NC3 1123   3.491   9.173   6.048
   95DOPC   PO4 1124   3.819   9.251   5.836
   95DOPC   GL1 1125   3.669   9.281   5.434
   95DOPC   GL2 1126   3.467   9.061   5.488
   95DOPC   C1A 1127   3.579   9.339   4.994
   95DOPC   D2A 1128   3.586   9.164   4.522
   95DOPC   C3A 1129   3.751   9.255   4.091
   95DOPC   C4A 1130   3.960   9.324   3.648
   95DOPC   C1B 1131   3.291   8.924   5.082
   95DOPC   D2B 1132   3.217   8.798   4.590
   95DOPC   C3B 1133   3.153   8.759   4.111
   95DOPC   C4B 1134   3.068   8.627   3.627
   96DOPC   NC3 1135   5.146   0.354   5.965
   96DOPC   PO4 1136   5.464   0.486   5.765
   96DOPC   GL1 1137   5.299   0.360   5.396
   96DOPC   GL2 1138   5.037   0.253   5.510
   96DOPC   C1A 1139   5.202   0.459   4.972
   96DOPC   D2A 1140   5.283   0.620   4.496
   96DOPC   C3A 1141   5.107   0.454   4.087
   96DOPC   C4A 1142   4.914   0.594   3.654
   96DOPC   C1B 1143   4.740   0.224   5.166
   96DOPC   D2B 1144   4.456   0.256   4.743
   96DOPC   C3B 1145   4.569   0.246   4.280
   96DOPC   C4B 1146   4.628   0.157   3.792
   97DOPC   NC3 1147   6.625   2.053   6.044
   97DOPC   PO4 1148   6.974   2.044   5.845
   97DOPC   GL1 1149   6.965   1.913   5.397
   97DOPC   GL2 1150   6.842   2.193   5.398
   97DOPC   C1A 1151   6.883   1.928   4.954
   97DOPC   D2A 1152   6.717   2.135   4.524
   97DOPC   C3A 1153   6.690   1.944   4.094
   97DOPC   C4A 1154   6.594   1.701   3.674
   97DOPC   C1B 1155   6.478   2.260   5.139
   97DOPC   D2B 1156   6.259   2.320   4.690
   97DOPC   C3B 1157   6.307   2.257   4.234
   97DOPC   C4B 1158   6.360   2.202   3.756
   98DOPC   NC3 1159  11.025   5.915   5.795
   98DOPC   PO4 1160  11.172   6.286   5.838
   98DOPC   GL1 1161  11.543   6.319   5.611
   98DOPC   GL2 1162  11.446   6.036   5.499
   98DOPC   C1A 1163  11.618   6.444   5.194
   98DOPC   D2A 1164  11.608   6.464   4.676
   98DOPC   C3A 1165  11.585   6.384   4.203
   98DOPC   C4A 1166  11.567   6.264   3.721
   98DOPC   C1B 1167  11.508   5.971   5.044
   98DOPC   D2B 1168  11.530   5.984   4.524
   98DOPC   C3B 1169  11.417   5.846   4.073
   98DOPC   C4B 1170  11.282   5.622   3.636
   99DOPC   NC3 1171   3.631   5.907   6.020
   99DOPC   PO4 1172   3.565   6.144   5.707
   99DOPC   GL1 1173   3.750   6.068   5.337
   99DOPC   GL2 1174   3.772   5.779   5.389
   99DOPC   C1A 1175   3.629   5.971   4.921
   99DOPC   D2A 1176   3.620   5.816   4.443
   99DOPC   C3A 1177   3.405   5.830   4.019
   99DOPC   C4A 1178   2.989   6.069   3.861
   99DOPC   C1B 1179   3.617   5.495   5.084
   99DOPC   D2B 1180   3.580   5.269   4.634
   99DOPC   C3B 1181   3.724   5.384   4.203
   99DOPC   C4B 1182   3.841   5.556   3.760
  100DOPC   NC3 1183   5.141   5.437   6.125
  100DOPC   PO4 1184   4.969   5.383   5.772
  100DOPC   GL1 1185   4.936   5.588   5.392
  100DOPC   GL2 1186   4.877   5.846   5.558
  100DOPC   C1A 1187   5.132   5.618   4.970
  100DOPC   D2A 1188   5.203   5.372   4.529
  100DOPC   C3A 1189   5.085   5.592   4.127
  100DOPC   C4A 1190   5.038   5.677   3.651
  100DOPC   C1B 1191   4.958   6.063   5.206
  100DOPC   D2B 1192   5.009   6.087   4.705
  100DOPC   C3B 1193   4.881   6.081   4.237
  100DOPC   C4B 1194   4.695   6.076   3.760
  101DOPC   NC3 1195  15.068   4.067   5.821
  101DOPC   PO4 1196  14.864   3.759   5.662
  101DOPC   GL1 1197  14.928   4.010   5.348
  101DOPC   GL2 1198  15.222   4.059   5.370
  101DOPC   C1A 1199  14.742   4.142   4.972
  101DOPC   D2A 1200  14.528   4.118   4.518
  101DOPC   C3A 1201  14.682   4.281   4.103
  101DOPC   C4A 1202  14.507   4.537   3.711
  101DOPC   C1B 1203  15.322   4.231   4.966
  101DOPC   D2B 1204  15.480   4.220   4.487
  101DOPC   C3B 1205  15.207   4.408   4.152
  101DOPC   C4B 1206  14.998   4.424   3.707
  102DOPC   NC3 1207   5.748   7.356   5.866
  102DOPC   PO4 1208   5.541   7.077   5.672
  102DOPC   GL1 1209   5.814   7.163   5.357
  102DOPC   GL2 1210   5.783   7.470   5.401
  102DOPC   C1A 1211   5.851   7.057   4.930
  102DOPC   D2A 1212   5.978   6.942   4.459
  102DOPC   C3A 1213   5.960   7.129   4.031
  102DOPC   C4A 1214   5.617   7.247   3.701
  102DOPC   C1B 1215   5.640   7.631   5.006
  102DOPC   D2B 1216   5.463   7.737   4.541
  102DOPC   C3B 1217   5.665   7.555   4.148
  102DOPC   C4B 1218   5.947   7.630   3.731
  103DOPC   NC3 1219  13.479   3.228   5.523
  103DOPC   PO4 1220  13.631   3.581   5.632
  103DOPC   GL1 1221  13.840   3.638   5.249
  103DOPC   GL2 1222  13.888   3.339   5.257
  103DOPC   C1A 1223  13.694   3.809   4.859
  103DOPC   D2A 1224  13.529   3.856   4.389
  103DOPC   C3A 1225  13.413   3.742   3.934
  103DOPC   C4A 1226  13.311   3.632   3.457
  103DOPC   C1B 1227  13.578   3.328   4.931
  103DOPC   D2B 1228  13.299   3.365   4.503
  103DOPC   C3B 1229  13.395   3.243   4.041
  103DOPC   C4B 1230  13.296   3.094   3.570
  104DOPC   NC3 1231   3.516   0.154   5.914
  104DOPC   PO4 1232   3.311   0.037   5.584
  104DOPC   GL1 1233   3.593   0.097   5.270
  104DOPC   GL2 1234   3.676   0.326   5.442
  104DOPC   C1A 1235   3.548   0.178   4.825
  104DOPC   D2A 1236   3.486   0.106   4.348
  104DOPC   C3A 1237   3.404   0.140   3.906
  104DOPC   C4A 1238   3.308   9.907   3.496
  104DOPC   C1B 1239   3.561   0.604   5.125
  104DOPC   D2B 1240   3.580   0.811   4.673
  104DOPC   C3B 1241   3.626   0.611   4.259
  104DOPC   C4B 1242   3.616   0.620   3.771
  105DOPC   NC3 1243   6.909   2.862   5.916
  105DOPC   PO4 1244   6.795   2.535   5.716
  105DOPC   GL1 1245   6.736   2.625   5.329
  105DOPC   GL2 1246   6.439   2.692   5.323
  105DOPC   C1A 1247   6.921   2.428   4.983
  105DOPC   D2A 1248   7.198   2.231   4.610
  105DOPC   C3A 1249   7.116   2.225   4.141
  105DOPC   C4A 1250   6.892   2.255   3.690
  105DOPC   C1B 1251   6.533   2.745   4.890
  105DOPC   D2B 1252   6.880   2.655   4.527
  105DOPC   C3B 1253   6.734   2.585   4.089
  105DOPC   C4B 1254   6.529   2.879   3.753
  106DOPC   NC3 1255  16.861   1.035   5.799
  106DOPC   PO4 1256  16.562   1.302   5.775
  106DOPC   GL1 1257  16.439   1.165   5.371
  106DOPC   GL2 1258  16.696   0.994   5.355
  106DOPC   C1A 1259  16.320   1.162   4.943
  106DOPC   D2A 1260  16.271   1.074   4.448
  106DOPC   C3A 1261  16.459   1.295   4.084
  106DOPC   C4A 1262  16.620   1.535   3.698
  106DOPC   C1B 1263  16.702   0.789   4.958
  106DOPC   D2B 1264  16.648   0.630   4.486
  106DOPC   C3B 1265  16.597   0.792   4.050
  106DOPC   C4B 1266  16.537   1.015   3.617
  107DOPC   NC3 1267  15.201   0.470   5.872
  107DOPC   PO4 1268  14.826   0.330   5.800
  107DOPC   GL1 1269  14.708   0.117   5.396
  107DOPC   GL2 1270  15.014   0.123   5.387
  107DOPC   C1A 1271  14.563   0.321   5.003
  107DOPC   D2A 1272  14.573   0.429   4.510
  107DOPC   C3A 1273  14.695   0.228   4.099
  107DOPC   C4A 1274  14.850   9.907   3.741
  107DOPC   C1B 1275  15.072   0.400   5.047
  107DOPC   D2B 1276  15.070   0.647   4.616
  107DOPC   C3B 1277  15.147   0.561   4.162
  107DOPC   C4B 1278  15.294   0.821   3.767
  108DOPC   NC3 1279   2.418   9.948   5.837
  108DOPC   PO4 1280   2.102   9.915   5.599
  108DOPC   GL1 1281   2.302   0.048   5.226
  108DOPC   GL2 1282   1.997   0.032   5.158
  108DOPC   C1A 1283   2.332   9.887   4.813
  108DOPC   D2A 1284   2.117   9.565   4.483
  108DOPC   C3A 1285   2.138   9.541   4.015
  108DOPC   C4A 1286   2.515   9.805   3.868
  108DOPC   C1B 1287   1.932   9.614   5.011
  108DOPC   D2B 1288   1.783   9.237   4.722
  108DOPC   C3B 1289   1.712   9.286   4.253
  108DOPC   C4B 1290   1.718   9.383   3.755
  109DOPC   NC3 1291   0.862   2.562   5.965
  109DOPC   PO4 1292   0.954   2.920   5.797
  109DOPC   GL1 1293   0.781   2.823   5.409
  109DOPC   GL2 1294   0.859   2.536   5.481
  109DOPC   C1A 1295   0.912   2.948   5.008
  109DOPC   D2A 1296   1.051   3.174   4.573
  109DOPC   C3A 1297   1.069   3.014   4.119
  109DOPC   C4A 1298   1.245   2.983   3.652
  109DOPC   C1B 1299   1.115   2.411   5.137
  109DOPC   D2B 1300   1.350   2.271   4.708
  109DOPC   C3B 1301   1.216   2.295   4.240
  109DOPC   C4B 1302   1.023   2.514   3.819
  110DOPC   NC3 1303  14.862   6.003   5.993
  110DOPC   PO4 1304  15.038   6.342   5.888
  110DOPC   GL1 1305  14.903   6.258   5.483
  110DOPC   GL2 1306  14.970   5.975   5.529
  110DOPC   C1A 1307  14.981   6.209   5.062
  110DOPC   D2A 1308  15.081   6.233   4.575
  110DOPC   C3A 1309  15.033   6.190   4.113
  110DOPC   C4A 1310  15.177   5.949   3.711
  110DOPC   C1B 1311  15.168   5.732   5.192
  110DOPC   D2B 1312  15.437   5.615   4.762
  110DOPC   C3B 1313  15.331   5.530   4.297
  110DOPC   C4B 1314  15.061   5.467   3.870
  111DOPC   NC3 1315   8.126   4.310   6.002
  111DOPC   PO4 1316   7.923   4.630   5.877
  111DOPC   GL1 1317   7.795   4.431   5.527
  111DOPC   GL2 1318   8.052   4.255   5.504
  111DOPC   C1A 1319   7.699   4.340   5.104
  111DOPC   D2A 1320   7.731   4.135   4.650
  111DOPC   C3A 1321   7.594   4.164   4.195
  111DOPC   C4A 1322   7.744   4.343   3.739
  111DOPC   C1B 1323   8.173   4.243   5.051
  111DOPC   D2B 1324   8.235   4.158   4.549
  111DOPC   C3B 1325   8.072   4.303   4.124
  111DOPC   C4B 1326   8.208   4.133   3.669
  112DOPC   NC3 1327   5.091   9.547   5.869
  112DOPC   PO4 1328   5.123   9.225   5.631
  112DOPC   GL1 1329   5.361   9.441   5.369
  112DOPC   GL2 1330   5.121   9.642   5.362
  112DOPC   C1A 1331   5.437   9.497   4.951
  112DOPC   D2A 1332   5.527   9.677   4.497
  112DOPC   C3A 1333   5.322   9.532   4.106
  112DOPC   C4A 1334   5.167   9.276   3.723
  112DOPC   C1B 1335   5.129   9.921   5.009
  112DOPC   D2B 1336   5.053   0.160   4.569
  112DOPC   C3B 1337   4.996   9.956   4.151
  112DOPC   C4B 1338   4.880   9.687   3.765
  113DOPC   NC3 1339  11.535   2.404   5.802
  113DOPC   PO4 1340  11.893   2.559   5.694
  113DOPC   GL1 1341  11.728   2.724   5.312
  113DOPC   GL2 1342  11.472   2.549   5.349
  113DOPC   C1A 1343  11.713   2.708   4.865
  113DOPC   D2A 1344  11.591   2.644   4.382
  113DOPC   C3A 1345  11.617   2.842   3.950
  113DOPC   C4A 1346  11.469   2.847   3.483
  113DOPC   C1B 1347  11.241   2.569   4.965
  113DOPC   D2B 1348  11.073   2.630   4.481
  113DOPC   C3B 1349  11.149   2.615   3.996
  113DOPC   C4B 1350  11.137   2.466   3.515
  114DOPC   NC3 1351   0.356   4.779   5.938
  114DOPC   PO4 1352   0.147   4.988   5.678
  114DOPC   GL1 1353   0.356   4.990   5.322
  114DOPC   GL2 1354   0.484   4.714   5.384
  114DOPC   C1A 1355   0.349   4.962   4.879
  114DOPC   D2A 1356   0.366   4.941   4.390
  114DOPC   C3A 1357   0.401   5.152   3.978
  114DOPC   C4A 1358   0.482   5.276   3.514
  114DOPC   C1B 1359   0.708   4.635   5.014
  114DOPC   D2B 1360   0.823   4.698   4.516
  114DOPC   C3B 1361   0.663   4.693   4.065
  114DOPC   C4B 1362   0.376   4.746   3.654
  115DOPC   NC3 1363  17.073   9.592   5.719
  115DOPC   PO4 1364  17.425   9.784   5.760
  115DOPC   GL1 1365  17.512   0.007   5.357
  115DOPC   GL2 1366  17.217   0.038   5.379
  115DOPC   C1A 1367  17.512   9.958   4.906
  115DOPC   D2A 1368  17.475   9.708   4.454
  115DOPC   C3A 1369  17.510   9.585   3.985
  115DOPC   C4A 1370  17.445   9.426   3.516
  115DOPC   C1B 1371  17.124   9.693   5.139
  115DOPC   D2B 1372  17.082   9.429   4.711
  115DOPC   C3B 1373  17.057   9.472   4.237
  115DOPC   C4B 1374  16.978   9.491   3.743
  116DOPC   NC3 1375   4.654   3.414   5.849
  116DOPC   PO4 1376   4.366   3.165   5.723
  116DOPC   GL1 1377   4.149   3.234   5.424
  116DOPC   GL2 1378   3.905   3.041   5.440
  116DOPC   C1A 1379   4.263   3.432   5.045
  116DOPC   D2A 1380   4.282   3.537   4.556
  116DOPC   C3A 1381   4.381   3.570   4.100
  116DOPC   C4A 1382   4.573   3.736   3.683
  116DOPC   C1B 1383   3.790   3.206   5.050
  116DOPC   D2B 1384   3.773   3.532   4.666
  116DOPC   C3B 1385   3.870   3.531   4.207
  116DOPC   C4B 1386   3.982   3.523   3.724
  117DOPC   NC3 1387  18.702   7.500   5.926
  117DOPC   PO4 1388  18.550   7.642   5.585
  117DOPC   GL1 1389  18.718   7.334   5.304
  117DOPC   GL2 1390  18.980   7.375   5.441
  117DOPC   C1A 1391  18.755   7.216   4.870
  117DOPC   D2A 1392  18.758   7.140   4.368
  117DOPC   C3A 1393  18.729   7.375   3.959
  117DOPC   C4A 1394  18.651   7.469   3.469
  117DOPC   C1B 1395  19.233   7.371   5.068
  117DOPC   D2B 1396  19.458   7.439   4.627
  117DOPC   C3B 1397  19.263   7.355   4.188
  117DOPC   C4B 1398  19.170   7.410   3.692
  118DOPC   NC3 1399  15.926   9.133   6.050
  118DOPC   PO4 1400  16.083   9.290   5.706
  118DOPC   GL1 1401  15.949   9.177   5.326
  118DOPC   GL2 1402  15.655   9.149   5.446
  118DOPC   C1A 1403  15.835   9.312   4.924
  118DOPC   D2A 1404  15.672   9.460   4.481
  118DOPC   C3A 1405  15.849   9.358   4.066
  118DOPC   C4A 1406  15.984   9.176   3.636
  118DOPC   C1B 1407  15.401   9.083   5.076
  118DOPC   D2B 1408  15.396   8.976   4.579
  118DOPC   C3B 1409  15.546   8.925   4.132
  118DOPC   C4B 1410  15.573   8.745   3.669
  119DOPC   NC3 1411   4.127   0.114   6.084
  119DOPC   PO4 1412   3.990   0.335   5.788
  119DOPC   GL1 1413   4.116   0.150   5.448
  119DOPC   GL2 1414   4.399   0.279   5.498
  119DOPC   C1A 1415   4.004   0.193   5.031
  119DOPC   D2A 1416   3.985   0.161   4.526
  119DOPC   C3A 1417   3.896   0.230   4.064
  119DOPC   C4A 1418   4.089   0.456   3.680
  119DOPC   C1B 1419   4.338   0.563   5.162
  119DOPC   D2B 1420   4.075   0.665   4.742
  119DOPC   C3B 1421   4.171   0.588   4.293
  119DOPC   C4B 1422   4.486   0.634   3.920
  120DOPC   NC3 1423  14.126   9.935   5.925
  120DOPC   PO4 1424  13.777   0.012   5.739
  120DOPC   GL1 1425  13.865   9.749   5.386
  120DOPC   GL2 1426  14.136   9.876   5.426
  120DOPC   C1A 1427  13.862   9.724   4.944
  120DOPC   D2A 1428  14.136   9.584   4.542
  120DOPC   C3A 1429  13.970   9.641   4.102
  120DOPC   C4A 1430  13.874   9.366   3.715
  120DOPC   C1B 1431  14.348   9.861   5.036
  120DOPC   D2B 1432  14.535   9.912   4.562
  120DOPC   C3B 1433  14.462   9.767   4.116
  120DOPC   C4B 1434  14.256   9.745   3.659
  121DOPC   NC3 1435   6.649   4.345   5.690
  121DOPC   PO4 1436   6.938   4.074   5.638
  121DOPC   GL1 1437   6.865   4.086   5.206
  121DOPC   GL2 1438   6.574   4.220   5.258
  121DOPC   C1A 1439   6.760   4.198   4.797
  121DOPC   D2A 1440   6.384   4.247   4.479
  121DOPC   C3A 1441   6.557   4.217   4.057
  121DOPC   C4A 1442   6.883   4.324   3.714
  121DOPC   C1B 1443   6.328   4.454   4.945
  121DOPC   D2B 1444   6.078   4.716   4.572
  121DOPC   C3B 1445   6.197   4.603   4.121
  121DOPC   C4B 1446   6.414   4.517   3.672
  122DOPC   NC3 1447   6.850   5.950   5.931
  122DOPC   PO4 1448   6.749   5.618   5.745
  122DOPC   GL1 1449   6.754   5.867   5.383
  122DOPC   GL2 1450   6.594   6.081   5.534
  122DOPC   C1A 1451   6.708   5.858   4.926
  122DOPC   D2A 1452   6.768   5.856   4.422
  122DOPC   C3A 1453   6.785   5.874   3.938
  122DOPC   C4A 1454   6.690   5.758   3.450
  122DOPC   C1B 1455   6.292   5.873   5.274
  122DOPC   D2B 1456   6.206   5.693   4.819
  122DOPC   C3B 1457   6.309   5.684   4.352
  122DOPC   C4B 1458   6.368   5.573   3.859
  123DOPC   NC3 1459  14.277   1.741   5.862
  123DOPC   PO4 1460  14.113   2.053   5.670
  123DOPC   GL1 1461  14.439   2.032   5.369
  123DOPC   GL2 1462  14.331   2.294   5.284
  123DOPC   C1A 1463  14.582   1.811   5.020
  123DOPC   D2A 1464  14.437   1.835   4.544
  123DOPC   C3A 1465  14.631   1.735   4.132
  123DOPC   C4A 1466  14.817   1.561   3.705
  123DOPC   C1B 1467  13.979   2.168   5.020
  123DOPC   D2B 1468  13.592   2.078   4.711
  123DOPC   C3B 1469  13.944   2.098   4.405
  123DOPC   C4B 1470  14.293   2.124   4.060
  124DOPC   NC3 1471  14.946   2.053   5.957
  124DOPC   PO4 1472  14.615   2.172   5.772
  124DOPC   GL1 1473  14.773   2.331   5.359
  124DOPC   GL2 1474  14.996   2.128   5.419
  124DOPC   C1A 1475  14.652   2.305   4.911
  124DOPC   D2A 1476  14.664   2.289   4.390
  124DOPC   C3A 1477  14.769   2.246   3.920
  124DOPC   C4A 1478  14.852   2.231   3.424
  124DOPC   C1B 1479  15.064   1.997   4.987
  124DOPC   D2B 1480  14.985   1.886   4.492
  124DOPC   C3B 1481  15.128   1.869   4.030
  124DOPC   C4B 1482  15.224   1.862   3.540
  125DOPC   NC3 1483  11.415   6.730   5.869
  125DOPC   PO4 1484  11.135   6.919   5.655
  125DOPC   GL1 1485  11.296   6.747   5.328
  125DOPC   GL2 1486  11.182   6.460   5.387
  125DOPC   C1A 1487  11.299   6.807   4.888
  125DOPC   D2A 1488  11.346   6.830   4.384
  125DOPC   C3A 1489  11.249   6.731   3.922
  125DOPC   C4A 1490  11.212   6.587   3.439
  125DOPC   C1B 1491  11.158   6.338   4.957
  125DOPC   D2B 1492  11.140   6.349   4.448
  125DOPC   C3B 1493  11.127   6.244   3.981
  125DOPC   C4B 1494  11.118   6.089   3.495
  126DOPC   NC3 1495  11.308   7.570   5.840
  126DOPC   PO4 1496  11.512   7.228   5.828
  126DOPC   GL1 1497  11.453   7.221   5.405
  126DOPC   GL2 1498  11.373   7.524   5.379
  126DOPC   C1A 1499  11.519   7.244   4.970
  126DOPC   D2A 1500  11.458   7.335   4.467
  126DOPC   C3A 1501  11.404   7.232   3.998
  126DOPC   C4A 1502  11.283   7.081   3.528
  126DOPC   C1B 1503  11.275   7.664   4.945
  126DOPC   D2B 1504  11.031   7.688   4.508
  126DOPC   C3B 1505  11.047   7.632   4.040
  126DOPC   C4B 1506  11.155   7.563   3.567
  127DOPC   NC3 1507  17.123   8.183   5.725
  127DOPC   PO4 1508  17.505   8.103   5.633
  127DOPC   GL1 1509  17.476   7.761   5.371
  127DOPC   GL2 1510  17.173   7.813   5.429
  127DOPC   C1A 1511  17.543   7.829   4.930
  127DOPC   D2A 1512  17.544   7.862   4.420
  127DOPC   C3A 1513  17.485   8.100   4.013
  127DOPC   C4A 1514  17.622   8.463   3.711
  127DOPC   C1B 1515  17.044   8.017   5.062
  127DOPC   D2B 1516  16.859   8.193   4.617
  127DOPC   C3B 1517  16.977   8.177   4.156
  127DOPC   C4B 1518  17.069   8.027   3.684
  128DOPC   NC3 1519  12.726   3.003   5.946
  128DOPC   PO4 1520  13.082   3.181   5.875
  128DOPC   GL1 1521  13.001   3.336   5.514
  128DOPC   GL2 1522  12.698   3.291   5.520
  128DOPC   C1A 1523  13.087   3.144   5.131
  128DOPC   D2A 1524  12.944   2.962   4.670
  128DOPC   C3A 1525  12.920   3.157   4.230
  128DOPC   C4A 1526  12.949   3.434   3.811
  128DOPC   C1B 1527  12.648   3.363   5.085
  128DOPC   D2B 1528  12.733   3.537   4.622
  128DOPC   C3B 1529  12.594   3.593   4.178
  128DOPC   C4B 1530  12.493   3.710   3.707
  129DOPC   NC3 1531  16.696   9.869   5.975
  129DOPC   PO4 1532  16.965   0.081   5.758
  129DOPC   GL1 1533  16.741   0.020   5.376
  129DOPC   GL2 1534  16.737   9.714   5.421
  129DOPC   C1A 1535  16.696   9.877   4.955
  129DOPC   D2A 1536  16.633   9.624   4.525
  129DOPC   C3A 1537  16.637   9.743   4.075
  129DOPC   C4A 1538  16.844   0.021   3.731
  129DOPC   C1B 1539  16.705   9.391   5.071
  129DOPC   D2B 1540  16.673   9.111   4.644
  129DOPC   C3B 1541  16.609   9.229   4.191
  129DOPC   C4B 1542  16.483   9.335   3.726
  130DOPC   NC3 1543   7.799   3.117   5.611
  130DOPC   PO4 1544   7.425   3.254   5.621
  130DOPC   GL1 1545   7.589   3.516   5.341
  130DOPC   GL2 1546   7.771   3.649   5.547
  130DOPC   C1A 1547   7.894   3.338   5.057
  130DOPC   D2A 1548   8.161   3.070   4.728
  130DOPC   C3A 1549   8.128   3.310   4.326
  130DOPC   C4A 1550   8.034   3.260   3.842
  130DOPC   C1B 1551   7.940   3.828   5.187
  130DOPC   D2B 1552   8.058   3.702   4.714
  130DOPC   C3B 1553   8.007   3.808   4.258
  130DOPC   C4B 1554   7.819   3.837   3.809
  131DOPC   NC3 1555  16.676   8.039   5.916
  131DOPC   PO4 1556  16.835   7.711   5.744
  131DOPC   GL1 1557  16.739   7.840   5.356
  131DOPC   GL2 1558  16.740   8.132   5.442
  131DOPC   C1A 1559  16.664   7.720   4.919
  131DOPC   D2A 1560  16.609   7.642   4.423
  131DOPC   C3A 1561  16.648   7.798   3.975
  131DOPC   C4A 1562  16.613   7.818   3.475
  131DOPC   C1B 1563  16.544   8.199   5.055
  131DOPC   D2B 1564  16.341   8.090   4.610
  131DOPC   C3B 1565  16.460   8.245   4.180
  131DOPC   C4B 1566  16.674   8.355   3.744
  132DOPC   NC3 1567  18.260   1.026   6.067
  132DOPC   PO4 1568  18.104   0.847   5.744
  132DOPC   GL1 1569  18.222   1.089   5.413
  132DOPC   GL2 1570  18.141   1.331   5.572
  132DOPC   C1A 1571  18.210   1.098   4.965
  132DOPC   D2A 1572  18.219   0.912   4.498
  132DOPC   C3A 1573  18.298   1.061   4.047
  132DOPC   C4A 1574  18.192   1.366   3.650
  132DOPC   C1B 1575  17.901   1.421   5.222
  132DOPC   D2B 1576  17.847   1.391   4.715
  132DOPC   C3B 1577  17.897   1.265   4.257
  132DOPC   C4B 1578  17.865   1.010   3.801
  133DOPC   NC3 1579  17.393   2.632   5.829
  133DOPC   PO4 1580  17.228   2.891   5.585
  133DOPC   GL1 1581  17.215   2.534   5.361
  133DOPC   GL2 1582  17.465   2.381   5.453
  133DOPC   C1A 1583  17.300   2.607   4.939
  133DOPC   D2A 1584  17.503   2.701   4.497
  133DOPC   C3A 1585  17.330   2.764   4.076
  133DOPC   C4A 1586  17.390   3.113   3.746
  133DOPC   C1B 1587  17.727   2.352   5.082
  133DOPC   D2B 1588  17.897   2.370   4.599
  133DOPC   C3B 1589  17.802   2.490   4.144
  133DOPC   C4B 1590  17.662   2.636   3.689
  134DOPC   NC3 1591  16.677   4.217   5.793
  134DOPC   PO4 1592  16.709   3.823   5.734
  134DOPC   GL1 1593  16.858   3.867   5.355
  134DOPC   GL2 1594  16.840   4.171   5.336
  134DOPC   C1A 1595  16.602   3.791   4.998
  134DOPC   D2A 1596  16.258   3.798   4.631
  134DOPC   C3A 1597  16.426   3.799   4.180
  134DOPC   C4A 1598  16.714   3.742   3.779
  134DOPC   C1B 1599  16.704   4.276   4.914
  134DOPC   D2B 1600  16.492   4.241   4.452
  134DOPC   C3B 1601  16.210   4.497   4.162
  134DOPC   C4B 1602  15.969   4.619   3.748
  135DOPC   NC3 1603   2.657   1.356   6.165
  135DOPC   PO4 1604   2.500   1.250   5.811
  135DOPC   GL1 1605   2.670   1.025   5.473
  135DOPC   GL2 1606   2.463   0.809   5.438
  135DOPC   C1A 1607   2.715   1.205   5.055
  135DOPC   D2A 1608   2.651   1.256   4.552
  135DOPC   C3A 1609   2.621   1.484   4.133
  135DOPC   C4A 1610   2.681   1.798   3.749
  135DOPC   C1B 1611   2.515   0.747   4.991
  135DOPC   D2B 1612   2.746   0.750   4.523
  135DOPC   C3B 1613   2.840   1.004   4.123
  135DOPC   C4B 1614   2.831   1.274   3.696
  136DOPC   NC3 1615  14.367   9.332   5.904
  136DOPC   PO4 1616  14.037   9.486   5.735
  136DOPC   GL1 1617  14.240   9.456   5.393
  136DOPC   GL2 1618  14.442   9.234   5.446
  136DOPC   C1A 1619  14.141   9.312   5.015
  136DOPC   D2A 1620  14.181   9.006   4.641
  136DOPC   C3A 1621  14.085   9.154   4.228
  136DOPC   C4A 1622  14.360   9.296   3.869
  136DOPC   C1B 1623  14.571   9.010   5.060
  136DOPC   D2B 1624  14.645   8.778   4.607
  136DOPC   C3B 1625  14.442   8.805   4.173
  136DOPC   C4B 1626  14.107   8.849   3.789
  137DOPC   NC3 1627  15.030   7.789   6.013
  137DOPC   PO4 1628  14.920   7.412   5.938
  137DOPC   GL1 1629  14.918   7.580   5.550
  137DOPC   GL2 1630  15.068   7.820   5.554
  137DOPC   C1A 1631  14.885   7.555   5.120
  137DOPC   D2A 1632  14.882   7.553   4.608
  137DOPC   C3A 1633  14.892   7.828   4.211
  137DOPC   C4A 1634  14.859   8.058   3.760
  137DOPC   C1B 1635  15.184   7.954   5.138
  137DOPC   D2B 1636  15.151   7.996   4.634
  137DOPC   C3B 1637  15.309   8.136   4.207
  137DOPC   C4B 1638  15.352   8.254   3.722
  138DOPC   NC3 1639  17.678   5.758   5.727
  138DOPC   PO4 1640  17.586   5.370   5.740
  138DOPC   GL1 1641  17.797   5.463   5.345
  138DOPC   GL2 1642  17.509   5.565   5.280
  138DOPC   C1A 1643  17.942   5.759   5.041
  138DOPC   D2A 1644  18.051   5.972   4.596
  138DOPC   C3A 1645  17.831   5.798   4.210
  138DOPC   C4A 1646  17.492   5.856   3.858
  138DOPC   C1B 1647  17.397   5.696   4.851
  138DOPC   D2B 1648  17.265   5.789   4.362
  138DOPC   C3B 1649  17.014   5.794   3.949
  138DOPC   C4B 1650  17.115   5.981   3.494
  139DOPC   NC3 1651  19.863   4.657   5.946
  139DOPC   PO4 1652  19.696   4.750   5.597
  139DOPC   GL1 1653  19.559   5.154   5.484
  139DOPC   GL2 1654  19.845   5.186   5.365
  139DOPC   C1A 1655  19.353   5.051   5.114
  139DOPC   D2A 1656  19.430   4.784   4.694
  139DOPC   C3A 1657  19.487   4.861   4.244
  139DOPC   C4A 1658  19.556   5.101   3.826
  139DOPC   C1B 1659  19.856   4.942   4.981
  139DOPC   D2B 1660  19.925   4.725   4.521
  139DOPC   C3B 1661  19.975   4.848   4.049
  139DOPC   C4B 1662   0.014   5.148   3.634
  140DOPC   NC3 1663  12.646   1.050   5.876
  140DOPC   PO4 1664  12.321   0.911   5.678
  140DOPC   GL1 1665  12.400   0.949   5.255
  140DOPC   GL2 1666  12.599   1.174   5.335
  140DOPC   C1A 1667  12.390   0.922   4.796
  140DOPC   D2A 1668  12.328   0.921   4.286
  140DOPC   C3A 1669  12.464   0.956   3.821
  140DOPC   C4A 1670  12.491   1.068   3.324
  140DOPC   C1B 1671  12.735   1.319   4.921
  140DOPC   D2B 1672  12.735   1.604   4.502
  140DOPC   C3B 1673  12.754   1.422   4.066
  140DOPC   C4B 1674  12.871   1.239   3.625
  141DOPC   NC3 1675   5.027   6.959   5.773
  141DOPC   PO4 1676   5.302   6.714   5.939
  141DOPC   GL1 1677   5.378   6.667   5.505
  141DOPC   GL2 1678   5.083   6.583   5.483
  141DOPC   C1A 1679   5.370   6.813   5.087
  141DOPC   D2A 1680   5.218   6.784   4.597
  141DOPC   C3A 1681   5.222   6.921   4.141
  141DOPC   C4A 1682   5.187   6.982   3.652
  141DOPC   C1B 1683   4.931   6.542   5.061
  141DOPC   D2B 1684   4.731   6.497   4.600
  141DOPC   C3B 1685   4.834   6.576   4.150
  141DOPC   C4B 1686   5.001   6.499   3.692
  142DOPC   NC3 1687  10.613   7.875   6.237
  142DOPC   PO4 1688  10.703   7.650   5.911
  142DOPC   GL1 1689  10.752   7.950   5.550
  142DOPC   GL2 1690  11.027   7.801   5.526
  142DOPC   C1A 1691  10.599   7.968   5.117
  142DOPC   D2A 1692  10.629   8.014   4.608
  142DOPC   C3A 1693  10.421   7.887   4.189
  142DOPC   C4A 1694  10.279   7.778   3.724
  142DOPC   C1B 1695  10.933   7.469   5.246
  142DOPC   D2B 1696  11.024   7.228   4.804
  142DOPC   C3B 1697  10.981   7.195   4.334
  142DOPC   C4B 1698  10.909   7.155   3.847
  143DOPC   NC3 1699   8.671   8.829   5.824
  143DOPC   PO4 1700   8.863   9.184   5.848
  143DOPC   GL1 1701   8.650   9.134   5.463
  143DOPC   GL2 1702   8.913   8.961   5.402
  143DOPC   C1A 1703   8.599   8.981   5.053
  143DOPC   D2A 1704   8.598   8.717   4.637
  143DOPC   C3A 1705   8.632   9.008   4.281
  143DOPC   C4A 1706   8.729   9.157   3.831
  143DOPC   C1B 1707   9.128   9.087   5.010
  143DOPC   D2B 1708   9.283   9.258   4.552
  143DOPC   C3B 1709   9.180   9.071   4.132
  143DOPC   C4B 1710   9.113   8.846   3.685
  144DOPC   NC3 1711  19.839   9.594   6.135
  144DOPC   PO4 1712  19.631   9.677   5.804
  144DOPC   GL1 1713  19.690   9.490   5.432
  144DOPC   GL2 1714  19.659   9.810   5.336
  144DOPC   C1A 1715  19.799   9.406   5.016
  144DOPC   D2A 1716  19.923   9.431   4.534
  144DOPC   C3A 1717  19.912   9.581   4.088
  144DOPC   C4A 1718  19.807   9.710   3.621
  144DOPC   C1B 1719  19.612   9.861   4.883
  144DOPC   D2B 1720  19.587   9.861   4.363
  144DOPC   C3B 1721  19.422   9.907   3.902
  144DOPC   C4B 1722  19.275   0.001   3.428
  145DOPC   NC3 1723  16.360   7.276   5.809
  145DOPC   PO4 1724  16.745   7.161   5.795
  145DOPC   GL1 1725  16.833   7.364   5.415
  145DOPC   GL2 1726  16.548   7.469   5.444
  145DOPC   C1A 1727  16.765   7.233   4.998
  145DOPC   D2A 1728  16.665   7.107   4.521
  145DOPC   C3A 1729  16.675   7.224   4.061
  145DOPC   C4A 1730  16.602   7.169   3.580
  145DOPC   C1B 1731  16.293   7.247   5.177
  145DOPC   D2B 1732  16.172   7.108   4.713
  145DOPC   C3B 1733  16.210   7.278   4.269
  145DOPC   C4B 1734  16.253   7.501   3.820
  146DOPC   NC3 1735   2.471   2.209   5.686
  146DOPC   PO4 1736   2.873   2.284   5.686
  146DOPC   GL1 1737   3.052   2.101   5.328
  146DOPC   GL2 1738   2.735   2.034   5.312
  146DOPC   C1A 1739   3.131   1.922   4.916
  146DOPC   D2A 1740   3.125   1.594   4.516
  146DOPC   C3A 1741   3.142   1.508   4.047
  146DOPC   C4A 1742   3.165   1.665   3.573
  146DOPC   C1B 1743   2.714   2.261   4.951
  146DOPC   D2B 1744   2.860   2.509   4.545
  146DOPC   C3B 1745   2.692   2.431   4.110
  146DOPC   C4B 1746   2.495   2.336   3.666
  147DOPC   NC3 1747  19.053   4.296   6.048
  147DOPC   PO4 1748  19.406   4.458   5.949
  147DOPC   GL1 1749  19.295   4.534   5.522
  147DOPC   GL2 1750  19.123   4.285   5.547
  147DOPC   C1A 1751  19.297   4.496   5.085
  147DOPC   D2A 1752  19.059   4.430   4.629
  147DOPC   C3A 1753  19.154   4.342   4.176
  147DOPC   C4A 1754  19.108   4.208   3.702
  147DOPC   C1B 1755  18.908   4.176   5.146
  147DOPC   D2B 1756  18.625   4.162   4.719
  147DOPC   C3B 1757  18.644   4.102   4.240
  147DOPC   C4B 1758  18.636   3.922   3.770
  148DOPC   NC3 1759  17.837   1.702   5.669
  148DOPC   PO4 1760  18.063   2.027   5.732
  148DOPC   GL1 1761  18.326   2.033   5.394
  148DOPC   GL2 1762  18.231   1.731   5.370
  148DOPC   C1A 1763  18.219   2.106   4.971
  148DOPC   D2A 1764  18.197   1.922   4.506
  148DOPC   C3A 1765  18.168   2.142   4.112
  148DOPC   C4A 1766  18.123   2.409   3.703
  148DOPC   C1B 1767  18.253   1.612   4.940
  148DOPC   D2B 1768  18.342   1.414   4.494
  148DOPC   C3B 1769  18.260   1.620   4.086
  148DOPC   C4B 1770  18.191   1.882   3.676
  149DOPC   NC3 1771  19.900   7.389   5.850
  149DOPC   PO4 1772  19.830   6.988   5.863
  149DOPC   GL1 1773  19.860   7.021   5.411
  149DOPC   GL2 1774  19.655   7.260   5.437
  149DOPC   C1A 1775   0.002   7.242   5.040
  149DOPC   D2A 1776   0.007   7.553   4.649
  149DOPC   C3A 1777   0.016   7.398   4.207
  149DOPC   C4A 1778   0.023   7.159   3.764
  149DOPC   C1B 1779  19.670   7.612   5.122
  149DOPC   D2B 1780  19.657   7.917   4.711
  149DOPC   C3B 1781  19.582   7.754   4.262
  149DOPC   C4B 1782  19.655   7.501   3.842
  150DOPC   NC3 1783  13.067   1.993   5.750
  150DOPC   PO4 1784  12.680   2.121   5.797
  150DOPC   GL1 1785  12.694   2.412   5.446
  150DOPC   GL2 1786  12.975   2.311   5.428
  150DOPC   C1A 1787  12.628   2.319   5.028
  150DOPC   D2A 1788  12.630   2.132   4.567
  150DOPC   C3A 1789  12.428   2.233   4.162
  150DOPC   C4A 1790  12.268   2.239   3.696
  150DOPC   C1B 1791  13.100   2.114   5.041
  150DOPC   D2B 1792  13.111   1.965   4.553
  150DOPC   C3B 1793  12.868   1.937   4.138
  150DOPC   C4B 1794  12.677   1.910   3.681
  151DOPC   NC3 1795  14.428   3.985   5.835
  151DOPC   PO4 1796  14.632   4.259   5.618
  151DOPC   GL1 1797  14.309   4.084   5.373
  151DOPC   GL2 1798  14.186   4.366   5.411
  151DOPC   C1A 1799  14.219   3.984   4.947
  151DOPC   D2A 1800  14.073   3.873   4.469
  151DOPC   C3A 1801  14.326   3.912   4.067
  151DOPC   C4A 1802  14.657   3.966   3.682
  151DOPC   C1B 1803  14.215   4.564   5.022
  151DOPC   D2B 1804  14.225   4.591   4.523
  151DOPC   C3B 1805  14.178   4.398   4.101
  151DOPC   C4B 1806  14.161   4.166   3.657
  152DOPC   NC3 1807   2.524   4.299   5.860
  152DOPC   PO4 1808   2.741   4.616   5.739
  152DOPC   GL1 1809   2.616   4.501   5.346
  152DOPC   GL2 1810   2.347   4.440   5.441
  152DOPC   C1A 1811   2.577   4.327   4.928
  152DOPC   D2A 1812   2.671   4.515   4.475
  152DOPC   C3A 1813   2.732   4.300   4.069
  152DOPC   C4A 1814   2.783   4.102   3.624
  152DOPC   C1B 1815   2.092   4.405   5.088
  152DOPC   D2B 1816   2.067   4.443   4.587
  152DOPC   C3B 1817   2.251   4.514   4.154
  152DOPC   C4B 1818   2.455   4.543   3.695
  153DOPC   NC3 1819  14.493   7.459   5.683
  153DOPC   PO4 1820  14.513   7.857   5.657
  153DOPC   GL1 1821  14.172   7.873   5.343
  153DOPC   GL2 1822  14.351   7.650   5.245
  153DOPC   C1A 1823  14.140   8.181   4.993
  153DOPC   D2A 1824  14.206   8.495   4.586
  153DOPC   C3A 1825  14.071   8.408   4.141
  153DOPC   C4A 1826  13.817   8.191   3.770
  153DOPC   C1B 1827  14.574   7.913   4.941
  153DOPC   D2B 1828  14.647   8.197   4.523
  153DOPC   C3B 1829  14.456   8.063   4.106
  153DOPC   C4B 1830  14.358   7.790   3.693
  154DOPC   NC3 1831   6.586   7.276   5.793
  154DOPC   PO4 1832   6.567   7.658   5.661
  154DOPC   GL1 1833   6.514   7.442   5.315
  154DOPC   GL2 1834   6.247   7.304   5.441
  154DOPC   C1A 1835   6.588   7.492   4.864
  154DOPC   D2A 1836   6.654   7.438   4.369
  154DOPC   C3A 1837   6.495   7.180   4.009
  154DOPC   C4A 1838   6.544   7.043   3.540
  154DOPC   C1B 1839   6.116   7.464   5.051
  154DOPC   D2B 1840   6.127   7.444   4.543
  154DOPC   C3B 1841   6.253   7.613   4.116
  154DOPC   C4B 1842   6.464   7.566   3.656
  155DOPC   NC3 1843   6.037   0.228   5.921
  155DOPC   PO4 1844   5.912   9.978   5.631
  155DOPC   GL1 1845   5.989   0.210   5.289
  155DOPC   GL2 1846   5.780   0.403   5.419
  155DOPC   C1A 1847   6.131   0.309   4.868
  155DOPC   D2A 1848   6.312   0.645   4.521
  155DOPC   C3A 1849   6.136   0.721   4.098
  155DOPC   C4A 1850   5.916   0.622   3.672
  155DOPC   C1B 1851   5.696   0.532   5.014
  155DOPC   D2B 1852   5.796   0.526   4.519
  155DOPC   C3B 1853   5.615   0.602   4.091
  155DOPC   C4B 1854   5.417   0.465   3.651
  156DOPC   NC3 1855  16.904   3.308   5.911
  156DOPC   PO4 1856  16.789   3.178   5.549
  156DOPC   GL1 1857  16.814   3.445   5.228
  156DOPC   GL2 1858  16.504   3.511   5.351
  156DOPC   C1A 1859  16.851   3.394   4.763
  156DOPC   D2A 1860  16.897   3.433   4.233
  156DOPC   C3A 1861  16.895   3.256   3.773
  156DOPC   C4A 1862  16.915   3.194   3.274
  156DOPC   C1B 1863  16.367   3.337   4.958
  156DOPC   D2B 1864  16.438   3.363   4.453
  156DOPC   C3B 1865  16.430   3.319   3.980
  156DOPC   C4B 1866  16.232   3.633   3.639
  157DOPC   NC3 1867  12.127   3.889   6.015
  157DOPC   PO4 1868  12.447   4.056   5.845
  157DOPC   GL1 1869  12.524   3.855   5.439
  157DOPC   GL2 1870  12.203   3.845   5.438
  157DOPC   C1A 1871  12.526   3.854   4.994
  157DOPC   D2A 1872  12.319   3.866   4.534
  157DOPC   C3A 1873  12.359   4.043   4.094
  157DOPC   C4A 1874  12.469   4.225   3.644
  157DOPC   C1B 1875  12.012   3.927   5.030
  157DOPC   D2B 1876  11.835   4.084   4.575
  157DOPC   C3B 1877  11.825   4.136   4.096
  157DOPC   C4B 1878  11.666   4.251   3.629
  158DOPC   NC3 1879  10.274   9.058   5.801
  158DOPC   PO4 1880  10.421   8.753   5.602
  158DOPC   GL1 1881  10.433   9.045   5.322
  158DOPC   GL2 1882  10.636   9.200   5.482
  158DOPC   C1A 1883  10.519   8.861   4.929
  158DOPC   D2A 1884  10.615   8.836   4.440
  158DOPC   C3A 1885  10.409   8.812   4.013
  158DOPC   C4A 1886  10.093   8.896   3.641
  158DOPC   C1B 1887  10.840   9.222   5.100
  158DOPC   D2B 1888  10.773   9.322   4.595
  158DOPC   C3B 1889  10.640   9.257   4.132
  158DOPC   C4B 1890  10.550   9.135   3.640
  159DOPC   NC3 1891  16.194   5.436   5.627
  159DOPC   PO4 1892  16.048   5.076   5.745
  159DOPC   GL1 1893  16.059   4.870   5.343
  159DOPC   GL2 1894  16.313   5.062   5.326
  159DOPC   C1A 1895  16.051   4.897   4.897
  159DOPC   D2A 1896  16.226   5.036   4.440
  159DOPC   C3A 1897  16.242   5.016   3.964
  159DOPC   C4A 1898  16.167   5.005   3.469
  159DOPC   C1B 1899  16.494   5.172   4.918
  159DOPC   D2B 1900  16.694   5.309   4.469
  159DOPC   C3B 1901  16.702   5.327   3.996
  159DOPC   C4B 1902  16.656   5.092   3.566
  160DOPC   NC3 1903   1.932   6.245   5.767
  160DOPC   PO4 1904   2.047   6.598   5.925
  160DOPC   GL1 1905   2.378   6.675   5.629
  160DOPC   GL2 1906   2.286   6.410   5.512
  160DOPC   C1A 1907   2.326   6.774   5.201
  160DOPC   D2A 1908   2.252   6.622   4.735
  160DOPC   C3A 1909   2.146   6.665   4.271
  160DOPC   C4A 1910   2.087   6.739   3.786
  160DOPC   C1B 1911   1.921   6.486   5.245
  160DOPC   D2B 1912   1.727   6.518   4.769
  160DOPC   C3B 1913   1.643   6.570   4.297
  160DOPC   C4B 1914   1.568   6.703   3.818
  161DOPC   NC3 1915  11.516   8.097   6.042
  161DOPC   PO4 1916  11.493   8.010   5.653
  161DOPC   GL1 1917  11.339   8.370   5.420
  161DOPC   GL2 1918  11.072   8.282   5.518
  161DOPC   C1A 1919  11.316   8.504   4.985
  161DOPC   D2A 1920  11.397   8.610   4.487
  161DOPC   C3A 1921  11.194   8.520   4.069
  161DOPC   C4A 1922  10.818   8.468   3.747
  161DOPC   C1B 1923  11.089   8.070   5.146
  161DOPC   D2B 1924  11.279   8.109   4.685
  161DOPC   C3B 1925  11.345   8.004   4.246
  161DOPC   C4B 1926  11.266   8.042   3.762
  162DOPC   NC3 1927  12.157   1.859   5.761
  162DOPC   PO4 1928  11.837   1.612   5.719
  162DOPC   GL1 1929  11.775   1.549   5.261
  162DOPC   GL2 1930  11.730   1.870   5.305
  162DOPC   C1A 1931  11.870   1.586   4.806
  162DOPC   D2A 1932  12.193   1.860   4.498
  162DOPC   C3A 1933  12.345   1.734   4.066
  162DOPC   C4A 1934  12.410   1.479   3.642
  162DOPC   C1B 1935  11.733   2.074   4.906
  162DOPC   D2B 1936  11.697   1.913   4.430
  162DOPC   C3B 1937  11.889   2.008   4.009
  162DOPC   C4B 1938  11.854   1.973   3.504
  163DOPC   NC3 1939  12.805   4.267   6.104
  163DOPC   PO4 1940  12.846   4.560   5.834
  163DOPC   GL1 1941  12.737   4.278   5.525
  163DOPC   GL2 1942  12.884   4.036   5.650
  163DOPC   C1A 1943  12.813   4.265   5.082
  163DOPC   D2A 1944  12.770   4.128   4.594
  163DOPC   C3A 1945  12.809   4.320   4.154
  163DOPC   C4A 1946  12.899   4.505   3.692
  163DOPC   C1B 1947  12.983   3.800   5.262
  163DOPC   D2B 1948  13.149   3.792   4.766
  163DOPC   C3B 1949  13.037   3.824   4.289
  163DOPC   C4B 1950  12.935   3.954   3.808
  164DOPC   NC3 1951   3.325   6.569   5.792
  164DOPC   PO4 1952   3.721   6.653   5.831
  164DOPC   GL1 1953   3.862   6.668   5.409
  164DOPC   GL2 1954   3.593   6.505   5.354
  164DOPC   C1A 1955   3.913   6.826   4.985
  164DOPC   D2A 1956   3.696   6.784   4.524
  164DOPC   C3A 1957   3.522   6.818   4.083
  164DOPC   C4A 1958   3.420   6.755   3.594
  164DOPC   C1B 1959   3.563   6.459   4.899
  164DOPC   D2B 1960   3.461   6.323   4.412
  164DOPC   C3B 1961   3.427   6.344   3.933
  164DOPC   C4B 1962   3.270   6.262   3.461
  165DOPC   NC3 1963  12.584   9.740   6.032
  165DOPC   PO4 1964  12.598   9.417   5.800
  165DOPC   GL1 1965  12.652   9.606   5.465
  165DOPC   GL2 1966  12.843   9.816   5.487
  165DOPC   C1A 1967  12.574   9.477   5.060
  165DOPC   D2A 1968  12.642   9.528   4.568
  165DOPC   C3A 1969  12.610   9.458   4.102
  165DOPC   C4A 1970  12.571   9.405   3.612
  165DOPC   C1B 1971  12.962   9.829   5.046
  165DOPC   D2B 1972  13.045   9.861   4.541
  165DOPC   C3B 1973  12.987   9.819   4.068
  165DOPC   C4B 1974  13.054   9.786   3.565
  166DOPC   NC3 1975  19.243   0.588   5.924
  166DOPC   PO4 1976  19.207   0.187   5.872
  166DOPC   GL1 1977  19.354   0.148   5.456
  166DOPC   GL2 1978  19.091   9.996   5.387
  166DOPC   C1A 1979  19.326   0.465   5.119
  166DOPC   D2A 1980  19.197   0.700   4.673
  166DOPC   C3A 1981  19.039   0.690   4.219
  166DOPC   C4A 1982  18.817   0.669   3.771
  166DOPC   C1B 1983  19.084   0.048   4.943
  166DOPC   D2B 1984  19.015   0.232   4.485
  166DOPC   C3B 1985  18.827   0.212   4.057
  166DOPC   C4B 1986  18.600   0.217   3.616
  167DOPC   NC3 1987   9.827   1.070   6.038
  167DOPC   PO4 1988  10.202   1.128   5.895
  167DOPC   GL1 1989  10.066   1.316   5.503
  167DOPC   GL2 1990   9.777   1.235   5.590
  167DOPC   C1A 1991   9.958   1.386   5.055
  167DOPC   D2A 1992   9.714   1.470   4.601
  167DOPC   C3A 1993   9.838   1.494   4.140
  167DOPC   C4A 1994  10.118   1.560   3.725
  167DOPC   C1B 1995   9.550   1.127   5.199
  167DOPC   D2B 1996   9.763   0.972   4.769
  167DOPC   C3B 1997   9.676   1.023   4.310
  167DOPC   C4B 1998   9.508   1.144   3.864
  168DOPC   NC3 1999  14.028   7.694   5.778
  168DOPC   PO4 2000  14.019   7.354   5.569
  168DOPC   GL1 2001  13.938   7.466   5.206
  168DOPC   GL2 2002  13.748   7.700   5.288
  168DOPC   C1A 2003  14.062   7.689   4.858
  168DOPC   D2A 2004  14.037   8.028   4.495
  168DOPC   C3A 2005  13.993   7.824   4.081
  168DOPC   C4A 2006  13.843   7.680   3.626
  168DOPC   C1B 2007  13.652   7.976   4.917
  168DOPC   D2B 2008  13.574   8.246   4.479
  168DOPC   C3B 2009  13.379   8.199   4.042
  168DOPC   C4B 2010  13.303   8.168   3.547
  169DOPC   NC3 2011  16.072   7.547   6.189
  169DOPC   PO4 2012  15.859   7.374   5.894
  169DOPC   GL1 2013  15.881   7.170   5.483
  169DOPC   GL2 2014  15.576   7.125   5.492
  169DOPC   C1A 2015  15.820   7.333   5.053
  169DOPC   D2A 2016  15.704   7.272   4.553
  169DOPC   C3A 2017  15.764   7.503   4.133
  169DOPC   C4A 2018  15.773   7.907   3.829
  169DOPC   C1B 2019  15.383   7.077   5.068
  169DOPC   D2B 2020  15.178   7.127   4.601
  169DOPC   C3B 2021  15.374   7.049   4.177
  169DOPC   C4B 2022  15.525   6.940   3.710
  170DOPC   NC3 2023  17.008   9.043   5.773
  170DOPC   PO4 2024  16.896   8.656   5.759
  170DOPC   GL1 2025  17.057   8.733   5.364
  170DOPC   GL2 2026  17.051   8.434   5.309
  170DOPC   C1A 2027  17.060   8.943   4.959
  170DOPC   D2A 2028  17.011   8.732   4.493
  170DOPC   C3A 2029  17.177   8.691   4.044
  170DOPC   C4A 2030  17.398   8.932   3.662
  170DOPC   C1B 2031  17.213   8.452   4.893
  170DOPC   D2B 2032  17.392   8.374   4.430
  170DOPC   C3B 2033  17.677   8.666   4.179
  170DOPC   C4B 2034  17.793   9.116   3.977
  171DOPC   NC3 2035   3.232   4.487   5.758
  171DOPC   PO4 2036   3.459   4.818   5.743
  171DOPC   GL1 2037   3.341   4.814   5.327
  171DOPC   GL2 2038   3.057   4.783   5.422
  171DOPC   C1A 2039   3.444   4.605   4.921
  171DOPC   D2A 2040   3.639   4.381   4.485
  171DOPC   C3A 2041   3.711   4.392   4.003
  171DOPC   C4A 2042   3.758   4.404   3.499
  171DOPC   C1B 2043   2.938   4.659   5.029
  171DOPC   D2B 2044   3.073   4.299   4.691
  171DOPC   C3B 2045   3.208   4.221   4.241
  171DOPC   C4B 2046   3.290   4.222   3.748
  172DOPC   NC3 2047   5.595   9.605   5.740
  172DOPC   PO4 2048   5.365   9.925   5.629
  172DOPC   GL1 2049   5.563   0.035   5.235
  172DOPC   GL2 2050   5.682   9.755   5.280
  172DOPC   C1A 2051   5.547   0.110   4.774
  172DOPC   D2A 2052   5.495   0.135   4.261
  172DOPC   C3A 2053   5.413   9.945   3.820
  172DOPC   C4A 2054   5.251   9.674   3.420
  172DOPC   C1B 2055   5.880   9.732   4.891
  172DOPC   D2B 2056   6.083   9.767   4.437
  172DOPC   C3B 2057   5.813   9.697   4.056
  172DOPC   C4B 2058   5.687   9.494   3.613
  173DOPC   NC3 2059  18.209   3.737   6.084
  173DOPC   PO4 2060  18.041   3.482   5.822
  173DOPC   GL1 2061  18.262   3.432   5.454
  173DOPC   GL2 2062  18.124   3.171   5.437
  173DOPC   C1A 2063  18.247   3.619   5.031
  173DOPC   D2A 2064  18.203   3.878   4.589
  173DOPC   C3A 2065  18.231   3.821   4.119
  173DOPC   C4A 2066  18.126   3.750   3.641
  173DOPC   C1B 2067  17.844   3.293   5.136
  173DOPC   D2B 2068  17.722   3.291   4.666
  173DOPC   C3B 2069  17.995   3.399   4.317
  173DOPC   C4B 2070  18.271   3.339   3.917
  174DOPC   NC3 2071   8.110   8.778   6.085
  174DOPC   PO4 2072   8.205   9.002   5.762
  174DOPC   GL1 2073   8.257   8.868   5.387
  174DOPC   GL2 2074   8.499   8.705   5.398
  174DOPC   C1A 2075   8.104   8.871   4.966
  174DOPC   D2A 2076   8.160   8.969   4.484
  174DOPC   C3A 2077   7.892   8.910   4.109
  174DOPC   C4A 2078   7.530   8.868   3.782
  174DOPC   C1B 2079   8.387   8.474   5.037
  174DOPC   D2B 2080   8.190   8.437   4.562
  174DOPC   C3B 2081   8.317   8.606   4.130
  174DOPC   C4B 2082   8.273   8.912   3.727
  175DOPC   NC3 2083   2.727   5.835   5.746
  175DOPC   PO4 2084   2.360   5.974   5.662
  175DOPC   GL1 2085   2.441   5.915   5.229
  175DOPC   GL2 2086   2.494   5.622   5.315
  175DOPC   C1A 2087   2.559   5.938   4.784
  175DOPC   D2A 2088   2.645   5.921   4.276
  175DOPC   C3A 2089   2.524   5.853   3.812
  175DOPC   C4A 2090   2.530   5.793   3.311
  175DOPC   C1B 2091   2.825   5.538   5.027
  175DOPC   D2B 2092   3.077   5.409   4.596
  175DOPC   C3B 2093   3.015   5.499   4.138
  175DOPC   C4B 2094   2.971   5.597   3.651
  176DOPC   NC3 2095  18.775   6.627   6.184
  176DOPC   PO4 2096  19.014   6.674   5.861
  176DOPC   GL1 2097  18.764   6.603   5.498
  176DOPC   GL2 2098  18.795   6.905   5.491
  176DOPC   C1A 2099  18.676   6.589   5.063
  176DOPC   D2A 2100  18.806   6.677   4.585
  176DOPC   C3A 2101  18.645   6.665   4.132
  176DOPC   C4A 2102  18.563   6.558   3.652
  176DOPC   C1B 2103  19.055   6.912   5.139
  176DOPC   D2B 2104  19.204   7.001   4.653
  176DOPC   C3B 2105  19.145   6.837   4.203
  176DOPC   C4B 2106  19.061   6.531   3.817
  177DOPC   NC3 2107   5.812   4.781   5.837
  177DOPC   PO4 2108   6.015   4.726   5.498
  177DOPC   GL1 2109   5.660   4.924   5.366
  177DOPC   GL2 2110   5.830   5.171   5.504
  177DOPC   C1A 2111   5.658   4.964   4.909
  177DOPC   D2A 2112   5.639   5.066   4.410
  177DOPC   C3A 2113   5.812   4.921   3.985
  177DOPC   C4A 2114   5.938   4.672   3.576
  177DOPC   C1B 2115   6.023   5.296   5.112
  177DOPC   D2B 2116   6.107   5.235   4.609
  177DOPC   C3B 2117   6.001   5.345   4.160
  177DOPC   C4B 2118   5.901   5.398   3.683
  178DOPC   NC3 2119   9.686   1.876   6.160
  178DOPC   PO4 2120   9.796   1.634   5.846
  178DOPC   GL1 2121   9.882   1.714   5.416
  178DOPC   GL2 2122   9.621   1.573   5.370
  178DOPC   C1A 2123  10.015   1.879   5.017
  178DOPC   D2A 2124  10.132   1.768   4.541
  178DOPC   C3A 2125  10.164   1.916   4.096
  178DOPC   C4A 2126  10.210   2.083   3.627
  178DOPC   C1B 2127   9.417   1.614   4.990
  178DOPC   D2B 2128   9.109   1.682   4.596
  178DOPC   C3B 2129   9.427   1.817   4.257
  178DOPC   C4B 2130   9.695   1.897   3.830
  179DOPC   NC3 2131  13.608   6.373   6.054
  179DOPC   PO4 2132  13.560   6.712   5.842
  179DOPC   GL1 2133  13.566   6.573   5.440
  179DOPC   GL2 2134  13.861   6.467   5.471
  179DOPC   C1A 2135  13.524   6.498   4.995
  179DOPC   D2A 2136  13.478   6.501   4.490
  179DOPC   C3A 2137  13.360   6.747   4.099
  179DOPC   C4A 2138  13.240   6.895   3.634
  179DOPC   C1B 2139  14.019   6.338   5.054
  179DOPC   D2B 2140  14.054   6.236   4.541
  179DOPC   C3B 2141  13.859   6.412   4.131
  179DOPC   C4B 2142  13.645   6.563   3.700
  180DOPC   NC3 2143   8.723   9.611   6.141
  180DOPC   PO4 2144   8.750   9.990   6.009
  180DOPC   GL1 2145   8.636   9.878   5.594
  180DOPC   GL2 2146   8.837   9.630   5.614
  180DOPC   C1A 2147   8.627   9.945   5.143
  180DOPC   D2A 2148   8.719   0.018   4.643
  180DOPC   C3A 2149   8.592   9.900   4.208
  180DOPC   C4A 2150   8.388   9.753   3.779
  180DOPC   C1B 2151   8.809   9.462   5.185
  180DOPC   D2B 2152   8.797   9.320   4.696
  180DOPC   C3B 2153   8.867   9.467   4.250
  180DOPC   C4B 2154   8.895   9.648   3.786
  181DOPC   NC3 2155  15.660   5.259   6.023
  181DOPC   PO4 2156  15.706   5.547   5.749
  181DOPC   GL1 2157  15.787   5.334   5.433
  181DOPC   GL2 2158  15.681   5.066   5.454
  181DOPC   C1A 2159  16.072   5.399   5.101
  181DOPC   D2A 2160  16.300   5.573   4.667
  181DOPC   C3A 2161  16.254   5.493   4.205
  181DOPC   C4A 2162  16.109   5.467   3.726
  181DOPC   C1B 2163  15.622   5.134   5.042
  181DOPC   D2B 2164  15.847   5.319   4.650
  181DOPC   C3B 2165  15.792   5.280   4.201
  181DOPC   C4B 2166  15.763   5.084   3.765
  182DOPC   NC3 2167   2.797   2.626   6.023
  182DOPC   PO4 2168   2.494   2.692   5.778
  182DOPC   GL1 2169   2.617   2.568   5.383
  182DOPC   GL2 2170   2.893   2.711   5.480
  182DOPC   C1A 2171   2.441   2.684   4.969
  182DOPC   D2A 2172   2.401   2.780   4.461
  182DOPC   C3A 2173   2.303   2.751   3.986
  182DOPC   C4A 2174   2.251   2.777   3.482
  182DOPC   C1B 2175   2.904   2.886   5.079
  182DOPC   D2B 2176   3.064   2.977   4.608
  182DOPC   C3B 2177   2.892   2.907   4.172
  182DOPC   C4B 2178   2.729   2.860   3.697
  183DOPC   NC3 2179   0.882   3.459   6.080
  183DOPC   PO4 2180   0.651   3.557   5.761
  183DOPC   GL1 2181   0.645   3.359   5.333
  183DOPC   GL2 2182   0.919   3.257   5.427
  183DOPC   C1A 2183   0.713   3.422   4.895
  183DOPC   D2A 2184   0.742   3.575   4.411
  183DOPC   C3A 2185   0.787   3.415   3.970
  183DOPC   C4A 2186   0.899   3.343   3.481
  183DOPC   C1B 2187   1.227   3.353   5.096
  183DOPC   D2B 2188   1.546   3.266   4.708
  183DOPC   C3B 2189   1.434   3.374   4.246
  183DOPC   C4B 2190   1.266   3.529   3.796
  184DOPC   NC3 2191  12.085   0.595   6.027
  184DOPC   PO4 2192  11.840   0.716   5.732
  184DOPC   GL1 2193  12.059   0.671   5.344
  184DOPC   GL2 2194  12.150   0.380   5.425
  184DOPC   C1A 2195  11.973   0.633   4.895
  184DOPC   D2A 2196  11.951   0.579   4.383
  184DOPC   C3A 2197  12.021   0.673   3.919
  184DOPC   C4A 2198  12.027   0.809   3.441
  184DOPC   C1B 2199  12.090   0.159   5.013
  184DOPC   D2B 2200  12.002   0.080   4.513
  184DOPC   C3B 2201  11.990   0.165   4.040
  184DOPC   C4B 2202  11.904   0.289   3.555
  185DOPC   NC3 2203   3.630   2.812   5.782
  185DOPC   PO4 2204   3.261   2.658   5.809
  185DOPC   GL1 2205   3.332   2.474   5.431
  185DOPC   GL2 2206   3.607   2.634   5.353
  185DOPC   C1A 2207   3.197   2.441   5.018
  185DOPC   D2A 2208   3.395   2.581   4.577
  185DOPC   C3A 2209   3.219   2.507   4.150
  185DOPC   C4A 2210   3.042   2.413   3.705
  185DOPC   C1B 2211   3.810   2.660   4.933
  185DOPC   D2B 2212   3.897   2.659   4.437
  185DOPC   C3B 2213   3.622   2.811   4.094
  185DOPC   C4B 2214   3.259   2.912   3.764
  186DOPC   NC3 2215   4.428   2.696   5.873
  186DOPC   PO4 2216   4.097   2.672   5.661
  186DOPC   GL1 2217   4.411   2.536   5.378
  186DOPC   GL2 2218   4.510   2.789   5.424
  186DOPC   C1A 2219   4.509   2.526   4.940
  186DOPC   D2A 2220   4.430   2.708   4.481
  186DOPC   C3A 2221   4.545   2.746   4.020
  186DOPC   C4A 2222   4.655   2.645   3.547
  186DOPC   C1B 2223   4.234   2.918   5.095
  186DOPC   D2B 2224   4.091   3.087   4.652
  186DOPC   C3B 2225   4.120   3.058   4.185
  186DOPC   C4B 2226   4.035   2.764   3.801
  187DOPC   NC3 2227   9.049   7.966   5.971
  187DOPC   PO4 2228   8.807   7.906   5.647
  187DOPC   GL1 2229   8.628   8.182   5.348
  187DOPC   GL2 2230   8.818   8.407   5.433
  187DOPC   C1A 2231   8.746   8.155   4.912
  187DOPC   D2A 2232   8.882   8.267   4.448
  187DOPC   C3A 2233   8.838   8.149   3.987
  187DOPC   C4A 2234   8.680   7.803   3.669
  187DOPC   C1B 2235   8.952   8.606   5.038
  187DOPC   D2B 2236   9.090   8.765   4.562
  187DOPC   C3B 2237   8.926   8.639   4.121
  187DOPC   C4B 2238   8.660   8.599   3.703
  188DOPC   NC3 2239  16.206   3.833   5.594
  188DOPC   PO4 2240  16.000   3.494   5.521
  188DOPC   GL1 2241  15.907   3.507   5.091
  188DOPC   GL2 2242  15.630   3.623   5.170
  188DOPC   C1A 2243  15.942   3.311   4.679
  188DOPC   D2A 2244  16.051   3.081   4.253
  188DOPC   C3A 2245  15.960   3.498   4.060
  188DOPC   C4A 2246  15.747   3.815   3.738
  188DOPC   C1B 2247  15.437   3.388   4.858
  188DOPC   D2B 2248  15.275   3.527   4.408
  188DOPC   C3B 2249  15.455   3.467   3.975
  188DOPC   C4B 2250  15.776   3.218   3.666
  189DOPC   NC3 2251   7.544   0.691   5.898
  189DOPC   PO4 2252   7.726   0.470   5.611
  189DOPC   GL1 2253   7.619   0.868   5.410
  189DOPC   GL2 2254   7.364   0.779   5.470
  189DOPC   C1A 2255   7.535   0.906   4.985
  189DOPC   D2A 2256   7.329   0.731   4.568
  189DOPC   C3A 2257   7.345   0.666   4.098
  189DOPC   C4A 2258   7.341   0.546   3.611
  189DOPC   C1B 2259   7.224   0.520   5.149
  189DOPC   D2B 2260   7.031   0.296   4.751
  189DOPC   C3B 2261   7.004   0.256   4.282
  189DOPC   C4B 2262   6.962   0.228   3.798
  190DOPC   NC3 2263   8.189   5.480   5.874
  190DOPC   PO4 2264   8.234   5.096   5.759
  190DOPC   GL1 2265   8.066   4.818   5.456
  190DOPC   GL2 2266   7.786   4.904   5.511
  190DOPC   C1A 2267   8.096   4.734   5.018
  190DOPC   D2A 2268   8.080   4.638   4.523
  190DOPC   C3A 2269   8.177   4.808   4.088
  190DOPC   C4A 2270   8.285   5.115   3.715
  190DOPC   C1B 2271   7.598   4.819   5.116
  190DOPC   D2B 2272   7.568   4.643   4.631
  190DOPC   C3B 2273   7.682   4.685   4.158
  190DOPC   C4B 2274   7.799   4.856   3.691
  191DOPC   NC3 2275  18.551   2.027   5.860
  191DOPC   PO4 2276  18.638   1.733   5.605
  191DOPC   GL1 2277  18.638   1.761   5.165
  191DOPC   GL2 2278  18.939   1.740   5.199
  191DOPC   C1A 2279  18.632   1.876   4.729
  191DOPC   D2A 2280  18.657   1.950   4.217
  191DOPC   C3A 2281  18.595   2.196   3.799
  191DOPC   C4A 2282  18.514   2.473   3.375
  191DOPC   C1B 2283  19.132   1.766   4.803
  191DOPC   D2B 2284  19.312   1.693   4.346
  191DOPC   C3B 2285  19.158   1.786   3.914
  191DOPC   C4B 2286  19.093   1.851   3.431
  192DOPC   NC3 2287  12.760   6.297   5.664
  192DOPC   PO4 2288  13.137   6.406   5.738
  192DOPC   GL1 2289  13.128   6.509   5.283
  192DOPC   GL2 2290  12.839   6.617   5.336
  192DOPC   C1A 2291  13.047   6.451   4.834
  192DOPC   D2A 2292  12.949   6.400   4.340
  192DOPC   C3A 2293  12.928   6.502   3.869
  192DOPC   C4A 2294  12.841   6.681   3.403
  192DOPC   C1B 2295  12.583   6.398   5.029
  192DOPC   D2B 2296  12.529   6.141   4.584
  192DOPC   C3B 2297  12.480   6.269   4.115
  192DOPC   C4B 2298  12.476   6.366   3.621
  193DOPC   NC3 2299   0.361   3.239   6.126
  193DOPC   PO4 2300   0.156   3.491   5.894
  193DOPC   GL1 2301   0.218   3.432   5.501
  193DOPC   GL2 2302   0.349   3.699   5.420
  193DOPC   C1A 2303   0.164   3.324   5.089
  193DOPC   D2A 2304   0.292   3.384   4.601
  193DOPC   C3A 2305   0.272   3.473   4.133
  193DOPC   C4A 2306   0.399   3.525   3.646
  193DOPC   C1B 2307   0.356   3.785   4.967
  193DOPC   D2B 2308   0.361   3.936   4.482
  193DOPC   C3B 2309   0.522   3.906   4.035
  193DOPC   C4B 2310   0.821   3.817   3.656
  194DOPC   NC3 2311  15.996   3.173   5.920
  194DOPC   PO4 2312  15.770   2.916   5.720
  194DOPC   GL1 2313  15.434   3.039   5.496
  194DOPC   GL2 2314  15.624   3.237   5.378
  194DOPC   C1A 2315  15.335   2.939   5.091
  194DOPC   D2A 2316  15.510   2.917   4.621
  194DOPC   C3A 2317  15.407   2.991   4.175
  194DOPC   C4A 2318  15.244   3.083   3.719
  194DOPC   C1B 2319  15.855   3.001   5.065
  194DOPC   D2B 2320  16.008   2.749   4.655
  194DOPC   C3B 2321  15.798   2.637   4.242
  194DOPC   C4B 2322  15.636   2.708   3.769
  195DOPC   NC3 2323  12.730   2.497   6.163
  195DOPC   PO4 2324  12.948   2.559   5.830
  195DOPC   GL1 2325  12.978   2.842   5.517
  195DOPC   GL2 2326  12.680   2.859   5.500
  195DOPC   C1A 2327  13.040   2.630   5.121
  195DOPC   D2A 2328  13.203   2.457   4.678
  195DOPC   C3A 2329  12.990   2.417   4.271
  195DOPC   C4A 2330  12.784   2.401   3.816
  195DOPC   C1B 2331  12.583   2.831   5.079
  195DOPC   D2B 2332  12.503   2.626   4.619
  195DOPC   C3B 2333  12.608   2.732   4.172
  195DOPC   C4B 2334  12.823   2.928   3.766
  196DOPC   NC3 2335   4.952   1.634   5.842
  196DOPC   PO4 2336   4.742   1.931   5.677
  196DOPC   GL1 2337   4.886   2.015   5.290
  196DOPC   GL2 2338   5.130   2.159   5.440
  196DOPC   C1A 2339   4.958   1.771   4.894
  196DOPC   D2A 2340   5.032   1.638   4.412
  196DOPC   C3A 2341   4.867   1.846   4.018
  196DOPC   C4A 2342   4.616   2.147   3.718
  196DOPC   C1B 2343   5.357   2.027   5.101
  196DOPC   D2B 2344   5.397   1.929   4.616
  196DOPC   C3B 2345   5.363   2.042   4.165
  196DOPC   C4B 2346   5.231   2.084   3.694
  197DOPC   NC3 2347   8.314   8.082   5.700
  197DOPC   PO4 2348   8.259   8.481   5.715
  197DOPC   GL1 2349   7.988   8.523   5.348
  197DOPC   GL2 2350   7.911   8.250   5.468
  197DOPC   C1A 2351   7.877   8.350   4.955
  197DOPC   D2A 2352   7.840   8.057   4.549
  197DOPC   C3A 2353   7.942   8.212   4.122
  197DOPC   C4A 2354   7.944   8.517   3.738
  197DOPC   C1B 2355   8.187   8.022   5.192
  197DOPC   D2B 2356   8.321   7.938   4.719
  197DOPC   C3B 2357   8.415   8.075   4.272
  197DOPC   C4B 2358   8.352   8.198   3.786
  198DOPC   NC3 2359  18.235   9.310   5.762
  198DOPC   PO4 2360  18.474   9.630   5.763
  198DOPC   GL1 2361  18.359   9.865   5.411
  198DOPC   GL2 2362  18.624   0.018   5.432
  198DOPC   C1A 2363  18.295   9.705   4.984
  198DOPC   D2A 2364  18.320   9.474   4.526
  198DOPC   C3A 2365  18.112   9.539   4.094
  198DOPC   C4A 2366  17.930   9.581   3.626
  198DOPC   C1B 2367  18.571   0.154   5.006
  198DOPC   D2B 2368  18.381   0.227   4.534
  198DOPC   C3B 2369  18.290   0.159   4.068
  198DOPC   C4B 2370  18.096   0.112   3.614
  199DOPC   NC3 2371   0.448   2.217   6.069
  199DOPC   PO4 2372   0.528   2.269   5.686
  199DOPC   GL1 2373   0.293   2.117   5.377
  199DOPC   GL2 2374   0.415   1.831   5.384
  199DOPC   C1A 2375   0.319   2.100   4.948
  199DOPC   D2A 2376   0.409   1.962   4.478
  199DOPC   C3A 2377   0.422   2.048   4.023
  199DOPC   C4A 2378   0.804   2.064   3.699
  199DOPC   C1B 2379   0.404   1.595   4.981
  199DOPC   D2B 2380   0.297   1.452   4.486
  199DOPC   C3B 2381   0.333   1.552   4.019
  199DOPC   C4B 2382   0.396   1.792   3.575
  200DOPC   NC3 2383  12.766   3.612   5.860
  200DOPC   PO4 2384  12.382   3.545   5.756
  200DOPC   GL1 2385  12.274   3.407   5.339
  200DOPC   GL2 2386  11.995   3.375   5.419
  200DOPC   C1A 2387  12.197   3.469   4.890
  200DOPC   D2A 2388  12.094   3.429   4.400
  200DOPC   C3A 2389  12.082   3.611   3.975
  200DOPC   C4A 2390  12.047   3.922   3.587
  200DOPC   C1B 2391  11.787   3.183   5.062
  200DOPC   D2B 2392  11.717   3.122   4.553
  200DOPC   C3B 2393  11.647   3.360   4.140
  200DOPC   C4B 2394  11.615   3.756   3.841
  201DOPC   NC3 2395   2.755   0.614   5.760
  201DOPC   PO4 2396   2.821   0.214   5.758
  201DOPC   GL1 2397   2.900   0.204   5.371
  201DOPC   GL2 2398   2.650   0.336   5.253
  201DOPC   C1A 2399   3.116   0.308   5.016
  201DOPC   D2A 2400   3.199   0.488   4.542
  201DOPC   C3A 2401   3.119   0.565   4.070
  201DOPC   C4A 2402   2.762   0.648   3.713
  201DOPC   C1B 2403   2.665   0.302   4.787
  201DOPC   D2B 2404   2.762   0.277   4.277
  201DOPC   C3B 2405   2.878   0.154   3.817
  201DOPC   C4B 2406   2.875   0.092   3.311
  202DOPC   NC3 2407   2.022   0.339   5.865
  202DOPC   PO4 2408   2.336   0.377   5.608
  202DOPC   GL1 2409   2.081   0.448   5.333
  202DOPC   GL2 2410   2.007   0.742   5.424
  202DOPC   C1A 2411   2.170   0.385   4.905
  202DOPC   D2A 2412   2.318   0.486   4.438
  202DOPC   C3A 2413   2.304   0.274   4.011
  202DOPC   C4A 2414   1.901   0.173   3.735
  202DOPC   C1B 2415   1.914   0.826   4.987
  202DOPC   D2B 2416   1.883   0.856   4.481
  202DOPC   C3B 2417   2.059   0.728   4.060
  202DOPC   C4B 2418   2.216   0.590   3.599
  203DOPC   NC3 2419  14.039   3.293   5.710
  203DOPC   PO4 2420  14.166   3.649   5.572
  203DOPC   GL1 2421  14.306   3.601   5.217
  203DOPC   GL2 2422  14.577   3.743   5.248
  203DOPC   C1A 2423  14.097   3.491   4.844
  203DOPC   D2A 2424  13.802   3.426   4.454
  203DOPC   C3A 2425  13.977   3.537   4.040
  203DOPC   C4A 2426  14.169   3.651   3.596
  203DOPC   C1B 2427  14.638   3.678   4.820
  203DOPC   D2B 2428  14.685   3.636   4.325
  203DOPC   C3B 2429  14.553   3.499   3.895
  203DOPC   C4B 2430  14.601   3.441   3.409
  204DOPC   NC3 2431   5.953   8.868   5.671
  204DOPC   PO4 2432   5.628   9.078   5.586
  204DOPC   GL1 2433   5.647   8.859   5.262
  204DOPC   GL2 2434   5.832   8.614   5.308
  204DOPC   C1A 2435   5.747   9.090   4.896
  204DOPC   D2A 2436   5.868   9.296   4.457
  204DOPC   C3A 2437   5.703   9.189   4.036
  204DOPC   C4A 2438   5.541   8.951   3.629
  204DOPC   C1B 2439   6.040   8.460   4.940
  204DOPC   D2B 2440   6.041   8.409   4.436
  204DOPC   C3B 2441   5.731   8.485   4.086
  204DOPC   C4B 2442   5.381   8.461   3.741
  205DOPC   NC3 2443  11.906   6.451   5.893
  205DOPC   PO4 2444  11.903   6.846   5.803
  205DOPC   GL1 2445  11.748   6.872   5.388
  205DOPC   GL2 2446  12.053   6.777   5.350
  205DOPC   C1A 2447  11.799   6.838   4.948
  205DOPC   D2A 2448  11.942   6.824   4.481
  205DOPC   C3A 2449  11.741   6.844   4.062
  205DOPC   C4A 2450  11.672   6.775   3.585
  205DOPC   C1B 2451  12.297   6.816   4.967
  205DOPC   D2B 2452  12.513   6.643   4.544
  205DOPC   C3B 2453  12.324   6.764   4.129
  205DOPC   C4B 2454  12.024   6.484   3.867
  206DOPC   NC3 2455   6.846   5.130   5.838
  206DOPC   PO4 2456   6.677   4.853   5.600
  206DOPC   GL1 2457   6.341   5.048   5.402
  206DOPC   GL2 2458   6.447   5.307   5.545
  206DOPC   C1A 2459   6.391   4.965   4.953
  206DOPC   D2A 2460   6.582   4.727   4.544
  206DOPC   C3A 2461   6.700   4.723   4.082
  206DOPC   C4A 2462   6.816   4.834   3.608
  206DOPC   C1B 2463   6.551   5.425   5.138
  206DOPC   D2B 2464   6.599   5.389   4.640
  206DOPC   C3B 2465   6.483   5.179   4.230
  206DOPC   C4B 2466   6.293   5.015   3.795
  207DOPC   NC3 2467   8.069   1.778   5.766
  207DOPC   PO4 2468   7.846   1.600   5.490
  207DOPC   GL1 2469   8.199   1.514   5.218
  207DOPC   GL2 2470   8.306   1.778   5.339
  207DOPC   C1A 2471   8.174   1.512   4.759
  207DOPC   D2A 2472   8.005   1.504   4.289
  207DOPC   C3A 2473   7.952   1.503   3.822
  207DOPC   C4A 2474   7.899   1.472   3.324
  207DOPC   C1B 2475   8.171   1.984   4.956
  207DOPC   D2B 2476   8.119   2.005   4.443
  207DOPC   C3B 2477   8.378   1.919   4.041
  207DOPC   C4B 2478   8.752   1.904   3.705
  208DOPC   NC3 2479  15.265   3.577   5.916
  208DOPC   PO4 2480  15.095   3.239   5.776
  208DOPC   GL1 2481  15.121   3.334   5.382
  208DOPC   GL2 2482  15.243   3.604   5.415
  208DOPC   C1A 2483  14.931   3.264   4.996
  208DOPC   D2A 2484  15.007   3.095   4.539
  208DOPC   C3A 2485  14.962   3.262   4.108
  208DOPC   C4A 2486  15.011   3.539   3.703
  208DOPC   C1B 2487  15.128   3.759   5.010
  208DOPC   D2B 2488  15.025   3.960   4.557
  208DOPC   C3B 2489  15.078   3.903   4.085
  208DOPC   C4B 2490  15.263   3.987   3.631
  209DOPC   NC3 2491   5.280   8.783   5.827
  209DOPC   PO4 2492   5.570   8.535   5.692
  209DOPC   GL1 2493   5.411   8.460   5.292
  209DOPC   GL2 2494   5.226   8.711   5.355
  209DOPC   C1A 2495   5.570   8.609   4.888
  209DOPC   D2A 2496   5.639   8.823   4.446
  209DOPC   C3A 2497   5.336   8.846   4.078
  209DOPC   C4A 2498   5.007   8.805   3.696
  209DOPC   C1B 2499   5.245   8.992   4.993
  209DOPC   D2B 2500   5.296   9.198   4.527
  209DOPC   C3B 2501   4.957   9.175   4.187
  209DOPC   C4B 2502   4.622   9.119   3.819
  210DOPC   NC3 2503  13.757   2.364   5.872
  210DOPC   PO4 2504  13.375   2.324   5.992
  210DOPC   GL1 2505  13.381   2.402   5.539
  210DOPC   GL2 2506  13.491   2.113   5.541
  210DOPC   C1A 2507  13.534   2.425   5.113
  210DOPC   D2A 2508  13.749   2.563   4.668
  210DOPC   C3A 2509  13.740   2.509   4.191
  210DOPC   C4A 2510  13.912   2.317   3.762
  210DOPC   C1B 2511  13.531   1.851   5.162
  210DOPC   D2B 2512  13.409   1.568   4.734
  210DOPC   C3B 2513  13.237   1.558   4.271
  210DOPC   C4B 2514  13.133   1.660   3.780
  211DOPC   NC3 2515  19.666   4.270   5.490
  211DOPC   PO4 2516  19.796   4.082   5.810
  211DOPC   GL1 2517  19.936   3.832   5.491
  211DOPC   GL2 2518  19.657   3.739   5.453
  211DOPC   C1A 2519  19.949   4.066   5.090
  211DOPC   D2A 2520  19.935   4.208   4.591
  211DOPC   C3A 2521  19.722   4.394   4.197
  211DOPC   C4A 2522  19.475   4.573   3.803
  211DOPC   C1B 2523  19.403   3.945   5.176
  211DOPC   D2B 2524  19.450   4.131   4.732
  211DOPC   C3B 2525  19.496   3.967   4.305
  211DOPC   C4B 2526  19.573   4.027   3.817
  212DOPC   NC3 2527  11.737   5.657   5.567
  212DOPC   PO4 2528  11.906   6.010   5.670
  212DOPC   GL1 2529  12.057   6.325   5.398
  212DOPC   GL2 2530  12.337   6.186   5.449
  212DOPC   C1A 2531  12.060   6.351   4.938
  212DOPC   D2A 2532  12.062   6.326   4.425
  212DOPC   C3A 2533  11.932   6.027   4.075
  212DOPC   C4A 2534  11.795   5.676   3.752
  212DOPC   C1B 2535  12.376   5.930   5.095
  212DOPC   D2B 2536  12.300   5.686   4.668
  212DOPC   C3B 2537  12.360   5.774   4.211
  212DOPC   C4B 2538  12.369   5.768   3.720
  213DOPC   NC3 2539   5.788   6.581   5.738
  213DOPC   PO4 2540   6.033   6.897   5.678
  213DOPC   GL1 2541   6.071   6.799   5.258
  213DOPC   GL2 2542   5.788   6.691   5.239
  213DOPC   C1A 2543   6.194   6.659   4.848
  213DOPC   D2A 2544   6.064   6.440   4.410
  213DOPC   C3A 2545   6.015   6.415   3.929
  213DOPC   C4A 2546   6.089   6.404   3.423
  213DOPC   C1B 2547   5.698   6.596   4.776
  213DOPC   D2B 2548   5.604   6.601   4.268
  213DOPC   C3B 2549   5.625   6.742   3.805
  213DOPC   C4B 2550   5.597   6.890   3.317
  214DOPC   NC3 2551  11.777   3.045   5.656
  214DOPC   PO4 2552  11.415   2.879   5.673
  214DOPC   GL1 2553  11.373   3.010   5.245
  214DOPC   GL2 2554  11.465   3.286   5.376
  214DOPC   C1A 2555  11.282   3.040   4.789
  214DOPC   D2A 2556  11.269   3.043   4.269
  214DOPC   C3A 2557  11.208   3.142   3.804
  214DOPC   C4A 2558  11.158   3.208   3.297
  214DOPC   C1B 2559  11.416   3.520   5.008
  214DOPC   D2B 2560  11.283   3.477   4.534
  214DOPC   C3B 2561  11.167   3.568   4.092
  214DOPC   C4B 2562  11.201   3.623   3.601
  215DOPC   NC3 2563   5.622   4.301   5.878
  215DOPC   PO4 2564   5.415   4.543   5.635
  215DOPC   GL1 2565   5.670   4.451   5.316
  215DOPC   GL2 2566   5.872   4.287   5.481
  215DOPC   C1A 2567   5.791   4.429   4.884
  215DOPC   D2A 2568   5.865   4.278   4.407
  215DOPC   C3A 2569   5.652   4.451   4.024
  215DOPC   C4A 2570   5.356   4.758   3.763
  215DOPC   C1B 2571   6.053   4.064   5.142
  215DOPC   D2B 2572   6.109   3.847   4.679
  215DOPC   C3B 2573   6.138   3.895   4.201
  215DOPC   C4B 2574   6.037   4.196   3.821
  216DOPC   NC3 2575  19.682   2.816   5.813
  216DOPC   PO4 2576  19.525   2.510   5.620
  216DOPC   GL1 2577  19.905   2.657   5.418
  216DOPC   GL2 2578  19.778   2.902   5.338
  216DOPC   C1A 2579   0.096   2.543   5.038
  216DOPC   D2A 2580   0.021   2.304   4.589
  216DOPC   C3A 2581   0.003   2.342   4.118
  216DOPC   C4A 2582  19.941   2.446   3.635
  216DOPC   C1B 2583  19.628   2.727   4.937
  216DOPC   D2B 2584  19.512   2.521   4.471
  216DOPC   C3B 2585  19.538   2.586   3.993
  216DOPC   C4B 2586  19.700   2.924   3.669
  217DOPC   NC3 2587  17.075   6.848   6.031
  217DOPC   PO4 2588  17.469   6.884   5.948
  217DOPC   GL1 2589  17.544   6.843   5.480
  217DOPC   GL2 2590  17.275   6.674   5.496
  217DOPC   C1A 2591  17.625   6.727   5.036
  217DOPC   D2A 2592  17.385   6.630   4.592
  217DOPC   C3A 2593  17.438   6.679   4.117
  217DOPC   C4A 2594  17.579   6.779   3.640
  217DOPC   C1B 2595  17.202   6.450   5.087
  217DOPC   D2B 2596  17.114   6.198   4.641
  217DOPC   C3B 2597  17.106   6.268   4.161
  217DOPC   C4B 2598  17.206   6.443   3.698
  218DOPC   NC3 2599  11.512   4.390   5.903
  218DOPC   PO4 2600  11.172   4.346   5.678
  218DOPC   GL1 2601  11.214   4.313   5.219
  218DOPC   GL2 2602  11.059   4.049   5.227
  218DOPC   C1A 2603  11.384   4.385   4.785
  218DOPC   D2A 2604  11.429   4.433   4.276
  218DOPC   C3A 2605  11.322   4.566   3.829
  218DOPC   C4A 2606  11.414   4.695   3.352
  218DOPC   C1B 2607  11.177   3.924   4.809
  218DOPC   D2B 2608  11.401   3.935   4.355
  218DOPC   C3B 2609  11.214   4.054   3.944
  218DOPC   C4B 2610  10.817   3.924   3.681
  219DOPC   NC3 2611   1.927   5.739   5.902
  219DOPC   PO4 2612   2.087   5.553   5.579
  219DOPC   GL1 2613   2.047   5.708   5.183
  219DOPC   GL2 2614   2.012   5.997   5.326
  219DOPC   C1A 2615   2.098   5.704   4.721
  219DOPC   D2A 2616   2.123   5.758   4.218
  219DOPC   C3A 2617   2.022   5.484   3.846
  219DOPC   C4A 2618   1.810   5.362   3.403
  219DOPC   C1B 2619   2.123   6.161   4.934
  219DOPC   D2B 2620   2.234   6.195   4.452
  219DOPC   C3B 2621   1.984   6.231   4.050
  219DOPC   C4B 2622   1.826   6.303   3.588
  220DOPC   NC3 2623  14.410   0.645   5.728
  220DOPC   PO4 2624  14.329   0.264   5.626
  220DOPC   GL1 2625  13.973   0.289   5.372
  220DOPC   GL2 2626  14.049   0.596   5.350
  220DOPC   C1A 2627  14.009   0.212   4.930
  220DOPC   D2A 2628  14.002   0.067   4.439
  220DOPC   C3A 2629  14.147   0.164   3.989
  220DOPC   C4A 2630  14.470   0.217   3.603
  220DOPC   C1B 2631  14.174   0.711   4.914
  220DOPC   D2B 2632  14.247   0.798   4.411
  220DOPC   C3B 2633  14.337   0.661   3.970
  220DOPC   C4B 2634  14.147   0.585   3.520
  221DOPC   NC3 2635   1.811   8.895   6.005
  221DOPC   PO4 2636   1.480   8.767   5.810
  221DOPC   GL1 2637   1.683   8.782   5.442
  221DOPC   GL2 2638   1.853   9.025   5.540
  221DOPC   C1A 2639   1.737   8.783   4.994
  221DOPC   D2A 2640   1.893   8.781   4.513
  221DOPC   C3A 2641   1.759   8.822   4.052
  221DOPC   C4A 2642   1.615   8.915   3.577
  221DOPC   C1B 2643   2.079   9.131   5.158
  221DOPC   D2B 2644   2.280   9.135   4.688
  221DOPC   C3B 2645   2.196   9.078   4.227
  221DOPC   C4B 2646   2.109   9.044   3.736
  222DOPC   NC3 2647  17.559   3.638   5.653
  222DOPC   PO4 2648  17.163   3.589   5.593
  222DOPC   GL1 2649  17.350   3.525   5.225
  222DOPC   GL2 2650  17.453   3.254   5.369
  222DOPC   C1A 2651  17.332   3.574   4.774
  222DOPC   D2A 2652  17.345   3.699   4.292
  222DOPC   C3A 2653  17.239   3.635   3.845
  222DOPC   C4A 2654  17.065   3.782   3.408
  222DOPC   C1B 2655  17.335   3.111   4.982
  222DOPC   D2B 2656  17.186   3.104   4.515
  222DOPC   C3B 2657  17.501   3.234   4.215
  222DOPC   C4B 2658  17.748   3.502   3.882
  223DOPC   NC3 2659   4.651   2.214   6.078
  223DOPC   PO4 2660   4.319   2.202   5.860
  223DOPC   GL1 2661   4.177   2.191   5.489
  223DOPC   GL2 2662   4.456   2.104   5.347
  223DOPC   C1A 2663   4.090   2.280   5.089
  223DOPC   D2A 2664   4.129   2.241   4.599
  223DOPC   C3A 2665   4.223   2.352   4.148
  223DOPC   C4A 2666   4.098   2.266   3.680
  223DOPC   C1B 2667   4.478   1.978   4.896
  223DOPC   D2B 2668   4.459   1.906   4.376
  223DOPC   C3B 2669   4.222   1.860   3.952
  223DOPC   C4B 2670   4.108   1.794   3.450
  224DOPC   NC3 2671   7.405   8.090   6.112
  224DOPC   PO4 2672   7.380   8.325   5.772
  224DOPC   GL1 2673   7.179   8.205   5.432
  224DOPC   GL2 2674   7.023   8.402   5.288
  224DOPC   C1A 2675   7.365   8.130   5.040
  224DOPC   D2A 2676   7.357   8.224   4.547
  224DOPC   C3A 2677   7.417   8.042   4.120
  224DOPC   C4A 2678   7.709   7.934   3.731
  224DOPC   C1B 2679   6.979   8.402   4.835
  224DOPC   D2B 2680   7.024   8.559   4.347
  224DOPC   C3B 2681   6.981   8.445   3.886
  224DOPC   C4B 2682   7.030   8.266   3.416
  225DOPC   NC3 2683  10.551   0.012   5.638
  225DOPC   PO4 2684  10.231   9.988   5.396
  225DOPC   GL1 2685  10.534   9.881   5.141
  225DOPC   GL2 2686  10.563   9.597   5.253
  225DOPC   C1A 2687  10.550   9.789   4.723
  225DOPC   D2A 2688  10.333   9.701   4.282
  225DOPC   C3A 2689  10.337   9.786   3.813
  225DOPC   C4A 2690  10.368   9.888   3.319
  225DOPC   C1B 2691  10.382   9.341   4.935
  225DOPC   D2B 2692  10.238   9.213   4.476
  225DOPC   C3B 2693  10.150   9.284   4.014
  225DOPC   C4B 2694  10.119   9.420   3.540
  226DOPC   NC3 2695   4.264   6.656   5.966
  226DOPC   PO4 2696   4.306   6.833   5.607
  226DOPC   GL1 2697   4.670   6.818   5.359
  226DOPC   GL2 2698   4.640   7.122   5.302
  226DOPC   C1A 2699   4.467   6.744   4.972
  226DOPC   D2A 2700   4.232   6.626   4.553
  226DOPC   C3A 2701   4.278   6.823   4.132
  226DOPC   C4A 2702   4.280   7.041   3.687
  226DOPC   C1B 2703   4.511   7.272   4.869
  226DOPC   D2B 2704   4.598   7.468   4.396
  226DOPC   C3B 2705   4.386   7.461   3.968
  226DOPC   C4B 2706   4.101   7.500   3.552
  227DOPC   NC3 2707  19.668   3.601   5.889
  227DOPC   PO4 2708  19.738   3.304   5.630
  227DOPC   GL1 2709  19.616   3.333   5.253
  227DOPC   GL2 2710  19.339   3.449   5.310
  227DOPC   C1A 2711  19.761   3.613   4.954
  227DOPC   D2A 2712  19.900   3.702   4.488
  227DOPC   C3A 2713  19.994   3.932   4.096
  227DOPC   C4A 2714   0.053   3.904   3.608
  227DOPC   C1B 2715  19.251   3.537   4.877
  227DOPC   D2B 2716  19.223   3.451   4.381
  227DOPC   C3B 2717  19.585   3.520   4.085
  227DOPC   C4B 2718  19.898   3.419   3.723
  228DOPC   NC3 2719   5.039   4.151   5.785
  228DOPC   PO4 2720   4.945   3.799   5.613
  228DOPC   GL1 2721   5.095   3.916   5.243
  228DOPC   GL2 2722   5.269   4.151   5.367
  228DOPC   C1A 2723   4.867   4.086   4.890
  228DOPC   D2A 2724   4.574   4.260   4.512
  228DOPC   C3A 2725   4.597   4.241   4.035
  228DOPC   C4A 2726   4.630   4.261   3.533
  228DOPC   C1B 2727   5.293   4.376   4.972
  228DOPC   D2B 2728   5.331   4.432   4.459
  228DOPC   C3B 2729   5.167   4.306   4.016
  228DOPC   C4B 2730   5.152   4.314   3.511
  229DOPC   NC3 2731   0.507   9.525   5.681
  229DOPC   PO4 2732   0.137   9.685   5.694
  229DOPC   GL1 2733   0.073   9.668   5.274
  229DOPC   GL2 2734   0.215   9.394   5.309
  229DOPC   C1A 2735   0.106   9.816   4.845
  229DOPC   D2A 2736   0.307   9.769   4.373
  229DOPC   C3A 2737   0.300   9.881   3.899
  229DOPC   C4A 2738   0.151   0.037   3.435
  229DOPC   C1B 2739   0.382   9.375   4.913
  229DOPC   D2B 2740   0.386   9.229   4.446
  229DOPC   C3B 2741   0.431   9.403   4.019
  229DOPC   C4B 2742   0.810   9.412   3.717
  230DOPC   NC3 2743   5.620   2.009   5.998
  230DOPC   PO4 2744   5.554   2.266   5.696
  230DOPC   GL1 2745   5.730   2.271   5.288
  230DOPC   GL2 2746   5.995   2.158   5.358
  230DOPC   C1A 2747   5.745   2.221   4.845
  230DOPC   D2A 2748   5.860   2.045   4.392
  230DOPC   C3A 2749   5.839   2.155   3.940
  230DOPC   C4A 2750   5.640   2.426   3.594
  230DOPC   C1B 2751   6.137   1.920   4.974
  230DOPC   D2B 2752   6.313   1.801   4.496
  230DOPC   C3B 2753   6.196   1.770   4.022
  230DOPC   C4B 2754   6.100   1.793   3.519
  231DOPC   NC3 2755  13.362   9.976   6.041
  231DOPC   PO4 2756  13.251   0.002   5.656
  231DOPC   GL1 2757  13.486   9.944   5.348
  231DOPC   GL2 2758  13.365   9.679   5.261
  231DOPC   C1A 2759  13.499   0.107   4.959
  231DOPC   D2A 2760  13.424   0.221   4.486
  231DOPC   C3A 2761  13.614   0.087   4.079
  231DOPC   C4A 2762  13.755   9.886   3.659
  231DOPC   C1B 2763  13.379   9.610   4.837
  231DOPC   D2B 2764  13.560   9.700   4.392
  231DOPC   C3B 2765  13.427   9.593   3.948
  231DOPC   C4B 2766  13.038   9.324   3.794
  232DOPC   NC3 2767  19.408   5.516   5.799
  232DOPC   PO4 2768  19.770   5.574   5.634
  232DOPC   GL1 2769  19.509   5.573   5.323
  232DOPC   GL2 2770  19.407   5.867   5.411
  232DOPC   C1A 2771  19.693   5.426   4.947
  232DOPC   D2A 2772  19.967   5.233   4.564
  232DOPC   C3A 2773  19.928   5.365   4.112
  232DOPC   C4A 2774  19.689   5.612   3.752
  232DOPC   C1B 2775  19.307   6.010   4.998
  232DOPC   D2B 2776  19.291   6.129   4.504
  232DOPC   C3B 2777  19.616   6.068   4.155
  232DOPC   C4B 2778  19.925   6.111   3.753
  233DOPC   NC3 2779  13.695   7.209   5.941
  233DOPC   PO4 2780  13.539   7.496   5.712
  233DOPC   GL1 2781  13.526   7.293   5.334
  233DOPC   GL2 2782  13.639   7.043   5.488
  233DOPC   C1A 2783  13.594   7.447   4.901
  233DOPC   D2A 2784  13.633   7.709   4.458
  233DOPC   C3A 2785  13.493   7.643   3.997
  233DOPC   C4A 2786  13.348   7.460   3.542
  233DOPC   C1B 2787  13.861   6.833   5.171
  233DOPC   D2B 2788  13.927   6.708   4.679
  233DOPC   C3B 2789  13.856   6.913   4.248
  233DOPC   C4B 2790  13.631   7.137   3.849
  234DOPC   NC3 2791   0.541   0.035   5.834
  234DOPC   PO4 2792   0.184   0.193   5.761
  234DOPC   GL1 2793   0.210   0.093   5.341
  234DOPC   GL2 2794   0.449   9.891   5.370
  234DOPC   C1A 2795   0.321   0.324   4.967
  234DOPC   D2A 2796   0.455   0.577   4.547
  234DOPC   C3A 2797   0.250   0.265   4.261
  234DOPC   C4A 2798  19.870   0.120   3.981
  234DOPC   C1B 2799   0.586   9.882   4.924
  234DOPC   D2B 2800   0.722   0.078   4.468
  234DOPC   C3B 2801   0.682   0.220   4.020
  234DOPC   C4B 2802   0.326   0.416   3.736
  235DOPC   NC3 2803  19.046   2.778   5.838
  235DOPC   PO4 2804  18.891   2.411   5.886
  235DOPC   GL1 2805  18.627   2.367   5.524
  235DOPC   GL2 2806  18.664   2.686   5.491
  235DOPC   C1A 2807  18.710   2.242   5.095
  235DOPC   D2A 2808  18.922   2.269   4.625
  235DOPC   C3A 2809  18.826   2.464   4.201
  235DOPC   C4A 2810  18.747   2.704   3.774
  235DOPC   C1B 2811  18.672   2.768   5.032
  235DOPC   D2B 2812  18.547   2.897   4.547
  235DOPC   C3B 2813  18.838   3.020   4.190
  235DOPC   C4B 2814  19.311   3.058   4.029
  236DOPC   NC3 2815   6.319   5.887   5.874
  236DOPC   PO4 2816   6.235   6.275   5.795
  236DOPC   GL1 2817   6.039   6.339   5.389
  236DOPC   GL2 2818   5.893   6.082   5.484
  236DOPC   C1A 2819   5.994   6.199   4.960
  236DOPC   D2A 2820   5.906   5.966   4.513
  236DOPC   C3A 2821   5.973   5.904   4.042
  236DOPC   C4A 2822   5.931   5.906   3.546
  236DOPC   C1B 2823   5.793   5.771   5.163
  236DOPC   D2B 2824   5.684   5.497   4.751
  236DOPC   C3B 2825   5.594   5.607   4.299
  236DOPC   C4B 2826   5.522   5.744   3.832
  237DOPC   NC3 2827  19.752   2.212   5.975
  237DOPC   PO4 2828   0.041   2.415   5.791
  237DOPC   GL1 2829  19.867   2.221   5.452
  237DOPC   GL2 2830  19.767   1.968   5.571
  237DOPC   C1A 2831  19.742   2.186   5.021
  237DOPC   D2A 2832  19.584   2.031   4.572
  237DOPC   C3A 2833  19.551   2.077   4.088
  237DOPC   C4A 2834  19.541   2.098   3.581
  237DOPC   C1B 2835  19.959   1.776   5.221
  237DOPC   D2B 2836  19.999   1.774   4.730
  237DOPC   C3B 2837  19.964   1.833   4.276
  237DOPC   C4B 2838  19.955   1.902   3.798
  238DOPC   NC3 2839   9.067   6.984   5.834
  238DOPC   PO4 2840   8.726   7.016   5.625
  238DOPC   GL1 2841   8.922   7.214   5.272
  238DOPC   GL2 2842   8.800   7.471   5.422
  238DOPC   C1A 2843   8.949   7.314   4.821
  238DOPC   D2A 2844   8.763   7.267   4.338
  238DOPC   C3A 2845   8.765   7.310   3.847
  238DOPC   C4A 2846   8.846   7.383   3.350
  238DOPC   C1B 2847   8.669   7.673   5.049
  238DOPC   D2B 2848   8.761   7.757   4.553
  238DOPC   C3B 2849   8.980   7.684   4.141
  238DOPC   C4B 2850   9.161   7.606   3.691
  239DOPC   NC3 2851   0.668   1.790   5.787
  239DOPC   PO4 2852   0.917   2.067   5.950
  239DOPC   GL1 2853   0.962   2.099   5.530
  239DOPC   GL2 2854   1.254   1.979   5.573
  239DOPC   C1A 2855   0.795   2.016   5.114
  239DOPC   D2A 2856   0.875   2.102   4.618
  239DOPC   C3A 2857   0.871   1.883   4.192
  239DOPC   C4A 2858   0.807   1.558   3.803
  239DOPC   C1B 2859   1.312   1.918   5.141
  239DOPC   D2B 2860   1.279   1.755   4.666
  239DOPC   C3B 2861   1.380   1.750   4.206
  239DOPC   C4B 2862   1.274   1.756   3.722
  240DOPC   NC3 2863  12.119   2.901   6.013
  240DOPC   PO4 2864  12.284   3.056   5.679
  240DOPC   GL1 2865  12.123   2.943   5.292
  240DOPC   GL2 2866  12.222   2.661   5.358
  240DOPC   C1A 2867  12.172   2.966   4.838
  240DOPC   D2A 2868  12.480   3.121   4.479
  240DOPC   C3A 2869  12.386   3.164   4.016
  240DOPC   C4A 2870  12.060   3.149   3.652
  240DOPC   C1B 2871  12.139   2.458   4.973
  240DOPC   D2B 2872  12.014   2.347   4.495
  240DOPC   C3B 2873  11.998   2.515   4.049
  240DOPC   C4B 2874  11.945   2.658   3.568
  241DOPC   NC3 2875   6.649   3.800   5.961
  241DOPC   PO4 2876   6.355   3.954   5.754
  241DOPC   GL1 2877   6.568   3.822   5.455
  241DOPC   GL2 2878   6.568   3.534   5.541
  241DOPC   C1A 2879   6.495   3.829   5.026
  241DOPC   D2A 2880   6.613   3.730   4.555
  241DOPC   C3A 2881   6.617   3.718   4.100
  241DOPC   C4A 2882   6.379   3.846   3.694
  241DOPC   C1B 2883   6.682   3.342   5.152
  241DOPC   D2B 2884   6.728   3.186   4.668
  241DOPC   C3B 2885   6.720   3.221   4.193
  241DOPC   C4B 2886   6.648   3.369   3.716
  242DOPC   NC3 2887   5.209   0.912   5.854
  242DOPC   PO4 2888   4.975   0.733   5.577
  242DOPC   GL1 2889   4.682   1.015   5.346
  242DOPC   GL2 2890   4.927   1.191   5.296
  242DOPC   C1A 2891   4.505   1.018   4.927
  242DOPC   D2A 2892   4.447   0.989   4.424
  242DOPC   C3A 2893   4.839   0.879   4.178
  242DOPC   C4A 2894   5.254   0.916   3.890
  242DOPC   C1B 2895   5.011   1.207   4.841
  242DOPC   D2B 2896   5.214   1.162   4.365
  242DOPC   C3B 2897   4.969   1.333   3.988
  242DOPC   C4B 2898   4.522   1.157   3.858
  243DOPC   NC3 2899  16.301   5.871   6.245
  243DOPC   PO4 2900  16.129   5.859   5.891
  243DOPC   GL1 2901  16.225   6.100   5.519
  243DOPC   GL2 2902  16.397   5.847   5.513
  243DOPC   C1A 2903  16.425   6.207   5.127
  243DOPC   D2A 2904  16.601   6.190   4.657
  243DOPC   C3A 2905  16.536   6.290   4.198
  243DOPC   C4A 2906  16.733   6.253   3.749
  243DOPC   C1B 2907  16.515   5.698   5.116
  243DOPC   D2B 2908  16.840   5.733   4.731
  243DOPC   C3B 2909  16.658   5.799   4.307
  243DOPC   C4B 2910  16.500   5.786   3.838
  244DOPC   NC3 2911   4.268   9.062   5.883
  244DOPC   PO4 2912   4.569   8.843   5.728
  244DOPC   GL1 2913   4.317   8.874   5.319
  244DOPC   GL2 2914   4.345   9.152   5.416
  244DOPC   C1A 2915   4.257   8.936   4.857
  244DOPC   D2A 2916   4.062   8.922   4.378
  244DOPC   C3A 2917   4.135   8.913   3.912
  244DOPC   C4A 2918   4.040   8.805   3.435
  244DOPC   C1B 2919   4.566   9.314   5.068
  244DOPC   D2B 2920   4.580   9.263   4.564
  244DOPC   C3B 2921   4.559   8.871   4.294
  244DOPC   C4B 2922   4.547   8.602   3.884
  245DOPC   NC3 2923   8.277   1.129   6.019
  245DOPC   PO4 2924   8.296   1.334   5.675
  245DOPC   GL1 2925   8.239   1.101   5.367
  245DOPC   GL2 2926   7.943   1.163   5.342
  245DOPC   C1A 2927   8.492   1.178   4.993
  245DOPC   D2A 2928   8.733   1.254   4.554
  245DOPC   C3A 2929   8.532   1.203   4.116
  245DOPC   C4A 2930   8.326   1.197   3.661
  245DOPC   C1B 2931   8.015   1.064   4.939
  245DOPC   D2B 2932   8.218   1.031   4.488
  245DOPC   C3B 2933   8.012   1.018   4.062
  245DOPC   C4B 2934   7.663   0.950   3.719
  246DOPC   NC3 2935   0.147   8.745   5.924
  246DOPC   PO4 2936   0.336   8.514   5.658
  246DOPC   GL1 2937   0.066   8.657   5.349
  246DOPC   GL2 2938   0.293   8.873   5.307
  246DOPC   C1A 2939   0.130   8.625   4.916
  246DOPC   D2A 2940   0.314   8.718   4.464
  246DOPC   C3A 2941   0.167   8.949   4.084
  246DOPC   C4A 2942   0.020   9.237   3.722
  246DOPC   C1B 2943   0.577   8.887   4.954
  246DOPC   D2B 2944   0.876   9.055   4.585
  246DOPC   C3B 2945   0.763   9.035   4.127
  246DOPC   C4B 2946   0.518   8.966   3.698
  247DOPC   NC3 2947  18.892   9.590   6.040
  247DOPC   PO4 2948  19.213   9.392   5.898
  247DOPC   GL1 2949  19.211   9.622   5.582
  247DOPC   GL2 2950  18.897   9.602   5.551
  247DOPC   C1A 2951  19.288   9.599   5.164
  247DOPC   D2A 2952  19.223   9.639   4.663
  247DOPC   C3A 2953  19.081   9.776   4.241
  247DOPC   C4A 2954  18.927   9.794   3.761
  247DOPC   C1B 2955  18.778   9.674   5.124
  247DOPC   D2B 2956  18.709   9.827   4.633
  247DOPC   C3B 2957  18.584   9.742   4.168
  247DOPC   C4B 2958  18.425   9.709   3.687
  248DOPC   NC3 2959  15.398   6.000   5.763
  248DOPC   PO4 2960  15.766   6.102   5.640
  248DOPC   GL1 2961  15.930   5.782   5.382
  248DOPC   GL2 2962  15.617   5.755   5.326
  248DOPC   C1A 2963  15.983   5.860   4.940
  248DOPC   D2A 2964  15.866   5.781   4.447
  248DOPC   C3A 2965  16.023   5.905   4.018
  248DOPC   C4A 2966  16.223   6.188   3.665
  248DOPC   C1B 2967  15.515   6.066   4.998
  248DOPC   D2B 2968  15.588   6.217   4.517
  248DOPC   C3B 2969  15.522   5.983   4.108
  248DOPC   C4B 2970  15.575   5.574   3.812
  249DOPC   NC3 2971   7.347   4.194   5.950
  249DOPC   PO4 2972   7.705   4.047   5.827
  249DOPC   GL1 2973   7.595   4.044   5.434
  249DOPC   GL2 2974   7.360   4.245   5.460
  249DOPC   C1A 2975   7.416   3.920   5.068
  249DOPC   D2A 2976   7.217   4.040   4.621
  249DOPC   C3A 2977   7.077   4.018   4.174
  249DOPC   C4A 2978   7.333   4.053   3.752
  249DOPC   C1B 2979   7.197   4.395   5.040
  249DOPC   D2B 2980   7.070   4.542   4.557
  249DOPC   C3B 2981   7.195   4.520   4.093
  249DOPC   C4B 2982   7.313   4.561   3.604
  250DOPC   NC3 2983   8.587   2.500   5.895
  250DOPC   PO4 2984   8.319   2.517   5.588
  250DOPC   GL1 2985   8.297   2.393   5.151
  250DOPC   GL2 2986   8.553   2.569   5.135
  250DOPC   C1A 2987   8.241   2.446   4.710
  250DOPC   D2A 2988   8.299   2.755   4.305
  250DOPC   C3A 2989   8.457   2.571   3.893
  250DOPC   C4A 2990   8.770   2.445   3.513
  250DOPC   C1B 2991   8.662   2.713   4.714
  250DOPC   D2B 2992   8.814   2.770   4.236
  250DOPC   C3B 2993   8.849   2.869   3.773
  250DOPC   C4B 2994   8.864   2.936   3.282
  251DOPC   NC3 2995   2.041   2.814   5.964
  251DOPC   PO4 2996   2.030   2.426   5.826
  251DOPC   GL1 2997   2.178   2.510   5.445
  251DOPC   GL2 2998   2.166   2.825   5.479
  251DOPC   C1A 2999   1.956   2.496   5.068
  251DOPC   D2A 3000   1.870   2.676   4.618
  251DOPC   C3A 3001   1.847   2.573   4.169
  251DOPC   C4A 3002   1.976   2.429   3.727
  251DOPC   C1B 3003   2.050   3.003   5.079
  251DOPC   D2B 3004   2.064   3.158   4.599
  251DOPC   C3B 3005   1.937   3.100   4.156
  251DOPC   C4B 3006   1.793   2.917   3.720
  252DOPC   NC3 3007   7.448   9.391   5.852
  252DOPC   PO4 3008   7.739   9.130   5.943
  252DOPC   GL1 3009   7.823   9.067   5.494
  252DOPC   GL2 3010   7.517   9.066   5.499
  252DOPC   C1A 3011   7.867   9.284   5.105
  252DOPC   D2A 3012   7.909   9.409   4.613
  252DOPC   C3A 3013   7.696   9.383   4.187
  252DOPC   C4A 3014   7.427   9.374   3.772
  252DOPC   C1B 3015   7.369   9.228   5.108
  252DOPC   D2B 3016   7.374   9.368   4.619
  252DOPC   C3B 3017   7.158   9.485   4.200
  252DOPC   C4B 3018   7.051   9.712   3.758
  253DOPC   NC3 3019  18.163   7.374   5.826
  253DOPC   PO4 3020  18.418   7.145   5.628
  253DOPC   GL1 3021  18.281   7.374   5.276
  253DOPC   GL2 3022  18.003   7.359   5.367
  253DOPC   C1A 3023  18.247   7.212   4.860
  253DOPC   D2A 3024  18.301   6.878   4.475
  253DOPC   C3A 3025  18.297   7.047   4.025
  253DOPC   C4A 3026  18.248   7.482   3.778
  253DOPC   C1B 3027  17.737   7.235   5.022
  253DOPC   D2B 3028  17.711   7.020   4.554
  253DOPC   C3B 3029  17.761   7.089   4.078
  253DOPC   C4B 3030  17.892   7.174   3.601
  254DOPC   NC3 3031   4.282   1.740   5.581
  254DOPC   PO4 3032   4.583   1.491   5.472
  254DOPC   GL1 3033   4.648   1.460   5.038
  254DOPC   GL2 3034   4.339   1.515   5.046
  254DOPC   C1A 3035   4.584   1.459   4.600
  254DOPC   D2A 3036   4.251   1.422   4.210
  254DOPC   C3A 3037   4.063   1.397   3.765
  254DOPC   C4A 3038   3.897   1.179   3.338
  254DOPC   C1B 3039   4.108   1.307   4.716
  254DOPC   D2B 3040   3.906   1.043   4.334
  254DOPC   C3B 3041   4.049   0.916   3.899
  254DOPC   C4B 3042   4.336   0.874   3.476
  255DOPC   NC3 3043  19.488   6.505   5.815
  255DOPC   PO4 3044  19.626   6.304   5.506
  255DOPC   GL1 3045  19.269   6.517   5.340
  255DOPC   GL2 3046  19.411   6.786   5.434
  255DOPC   C1A 3047  19.269   6.524   4.888
  255DOPC   D2A 3048  19.524   6.614   4.458
  255DOPC   C3A 3049  19.554   6.550   3.986
  255DOPC   C4A 3050  19.575   6.424   3.511
  255DOPC   C1B 3051  19.567   6.956   5.042
  255DOPC   D2B 3052  19.784   7.059   4.594
  255DOPC   C3B 3053  19.660   7.031   4.139
  255DOPC   C4B 3054  19.537   6.988   3.660
  256DOPC   NC3 3055  15.113   1.446   5.950
  256DOPC   PO4 3056  14.913   1.663   5.670
  256DOPC   GL1 3057  15.102   1.425   5.403
  256DOPC   GL2 3058  15.027   1.159   5.546
  256DOPC   C1A 3059  14.950   1.444   4.990
  256DOPC   D2A 3060  14.745   1.401   4.535
  256DOPC   C3A 3061  14.994   1.354   4.140
  256DOPC   C4A 3062  15.271   1.344   3.722
  256DOPC   C1B 3063  14.824   0.960   5.196
  256DOPC   D2B 3064  14.634   0.898   4.732
  256DOPC   C3B 3065  14.746   0.889   4.270
  256DOPC   C4B 3066  14.798   1.025   3.792
  257DOPC   NC3 3067  17.595   4.130   5.879
  257DOPC   PO4 3068  17.953   4.018   5.777
  257DOPC   GL1 3069  17.954   3.751   5.429
  257DOPC   GL2 3070  18.233   3.884   5.401
  257DOPC   C1A 3071  17.741   3.784   5.044
  257DOPC   D2A 3072  17.685   3.946   4.570
  257DOPC   C3A 3073  17.757   4.000   4.098
  257DOPC   C4A 3074  17.921   4.209   3.667
  257DOPC   C1B 3075  18.188   4.146   5.033
  257DOPC   D2B 3076  18.194   4.425   4.604
  257DOPC   C3B 3077  18.205   4.378   4.126
  257DOPC   C4B 3078  18.427   4.390   3.676
  258DOPC   NC3 3079   4.468   8.369   5.956
  258DOPC   PO4 3080   4.138   8.577   5.855
  258DOPC   GL1 3081   4.271   8.478   5.497
  258DOPC   GL2 3082   4.561   8.445   5.478
  258DOPC   C1A 3083   4.110   8.498   5.085
  258DOPC   D2A 3084   4.255   8.496   4.601
  258DOPC   C3A 3085   4.143   8.442   4.148
  258DOPC   C4A 3086   4.138   8.351   3.655
  258DOPC   C1B 3087   4.608   8.386   5.022
  258DOPC   D2B 3088   4.747   8.308   4.528
  258DOPC   C3B 3089   4.593   8.133   4.105
  258DOPC   C4B 3090   4.438   7.909   3.684
  259DOPC   NC3 3091  10.708   8.853   6.069
  259DOPC   PO4 3092  10.922   8.879   5.724
  259DOPC   GL1 3093  10.955   8.758   5.264
  259DOPC   GL2 3094  11.263   8.811   5.338
  259DOPC   C1A 3095  11.008   8.856   4.801
  259DOPC   D2A 3096  11.095   9.000   4.331
  259DOPC   C3A 3097  10.968   8.942   3.885
  259DOPC   C4A 3098  10.946   8.847   3.397
  259DOPC   C1B 3099  11.474   8.996   4.975
  259DOPC   D2B 3100  11.657   9.089   4.506
  259DOPC   C3B 3101  11.538   8.926   4.071
  259DOPC   C4B 3102  11.414   8.742   3.633
  260DOPC   NC3 3103  19.718   0.135   5.954
  260DOPC   PO4 3104  19.753   0.523   5.845
  260DOPC   GL1 3105  19.954   0.493   5.466
  260DOPC   GL2 3106   0.011   0.802   5.450
  260DOPC   C1A 3107  19.811   0.301   5.079
  260DOPC   D2A 3108  19.503   0.290   4.665
  260DOPC   C3A 3109  19.447   0.358   4.203
  260DOPC   C4A 3110  19.239   0.385   3.755
  260DOPC   C1B 3111   0.047   0.769   5.008
  260DOPC   D2B 3112  19.953   0.502   4.591
  260DOPC   C3B 3113  19.921   0.620   4.128
  260DOPC   C4B 3114  19.789   0.798   3.688
  261DOPC   NC3 3115  18.101   2.950   5.846
  261DOPC   PO4 3116  17.728   3.035   5.715
  261DOPC   GL1 3117  17.656   2.802   5.342
  261DOPC   GL2 3118  17.975   2.753   5.354
  261DOPC   C1A 3119  17.762   2.841   4.910
  261DOPC   D2A 3120  18.005   2.878   4.468
  261DOPC   C3A 3121  17.896   2.981   4.012
  261DOPC   C4A 3122  17.862   3.142   3.534
  261DOPC   C1B 3123  18.197   2.605   4.974
  261DOPC   D2B 3124  18.404   2.405   4.544
  261DOPC   C3B 3125  18.336   2.639   4.124
  261DOPC   C4B 3126  18.280   2.885   3.685
  262DOPC   NC3 3127   7.311   8.846   5.896
  262DOPC   PO4 3128   7.071   9.080   5.676
  262DOPC   GL1 3129   7.119   8.841   5.281
  262DOPC   GL2 3130   7.333   8.676   5.448
  262DOPC   C1A 3131   7.218   8.853   4.806
  262DOPC   D2A 3132   7.354   8.962   4.315
  262DOPC   C3A 3133   7.049   9.022   3.956
  262DOPC   C4A 3134   6.700   9.342   3.799
  262DOPC   C1B 3135   7.618   8.755   5.118
  262DOPC   D2B 3136   7.713   8.700   4.607
  262DOPC   C3B 3137   7.555   8.529   4.176
  262DOPC   C4B 3138   7.449   8.372   3.705
  263DOPC   NC3 3139  19.271   4.939   5.805
  263DOPC   PO4 3140  18.948   4.708   5.762
  263DOPC   GL1 3141  19.003   4.820   5.347
  263DOPC   GL2 3142  18.940   5.113   5.424
  263DOPC   C1A 3143  18.929   4.829   4.908
  263DOPC   D2A 3144  18.996   4.941   4.420
  263DOPC   C3A 3145  19.035   4.850   3.955
  263DOPC   C4A 3146  18.879   4.650   3.529
  263DOPC   C1B 3147  18.678   5.254   5.069
  263DOPC   D2B 3148  18.599   5.267   4.564
  263DOPC   C3B 3149  18.792   5.346   4.128
  263DOPC   C4B 3150  19.139   5.409   3.763
  264DOPC   NC3 3151  19.686   1.022   5.718
  264DOPC   PO4 3152  19.801   1.409   5.746
  264DOPC   GL1 3153  19.470   1.372   5.476
  264DOPC   GL2 3154  19.512   1.640   5.348
  264DOPC   C1A 3155  19.616   1.081   5.168
  264DOPC   D2A 3156  19.657   0.904   4.702
  264DOPC   C3A 3157  19.521   0.901   4.246
  264DOPC   C4A 3158  19.298   0.895   3.785
  264DOPC   C1B 3159  19.587   1.554   4.907
  264DOPC   D2B 3160  19.745   1.392   4.449
  264DOPC   C3B 3161  19.654   1.510   4.000
  264DOPC   C4B 3162  19.547   1.591   3.528
  265DOPC   NC3 3163  14.334   1.237   6.065
  265DOPC   PO4 3164  14.647   1.232   5.818
  265DOPC   GL1 3165  14.649   1.374   5.394
  265DOPC   GL2 3166  14.466   1.601   5.461
  265DOPC   C1A 3167  14.460   1.293   5.005
  265DOPC   D2A 3168  14.252   1.281   4.554
  265DOPC   C3A 3169  14.415   1.243   4.114
  265DOPC   C4A 3170  14.284   1.087   3.669
  265DOPC   C1B 3171  14.123   1.656   5.147
  265DOPC   D2B 3172  13.937   1.667   4.671
  265DOPC   C3B 3173  14.097   1.639   4.203
  265DOPC   C4B 3174  14.316   1.631   3.741
  266DOPC   NC3 3175   1.217   8.019   5.842
  266DOPC   PO4 3176   1.447   7.861   5.555
  266DOPC   GL1 3177   1.108   7.993   5.345
  266DOPC   GL2 3178   1.185   8.291   5.465
  266DOPC   C1A 3179   1.033   8.064   4.903
  266DOPC   D2A 3180   0.890   8.067   4.421
  266DOPC   C3A 3181   1.109   8.066   4.001
  266DOPC   C4A 3182   1.563   8.030   3.780
  266DOPC   C1B 3183   1.437   8.385   5.117
  266DOPC   D2B 3184   1.489   8.449   4.615
  266DOPC   C3B 3185   1.425   8.445   4.140
  266DOPC   C4B 3186   1.354   8.475   3.644
  267DOPC   NC3 3187   3.513   8.519   6.165
  267DOPC   PO4 3188   3.568   8.745   5.833
  267DOPC   GL1 3189   3.909   8.878   5.557
  267DOPC   GL2 3190   3.848   8.580   5.476
  267DOPC   C1A 3191   3.819   8.918   5.134
  267DOPC   D2A 3192   3.733   8.686   4.689
  267DOPC   C3A 3193   3.504   8.453   4.329
  267DOPC   C4A 3194   3.219   8.256   3.953
  267DOPC   C1B 3195   3.566   8.472   5.135
  267DOPC   D2B 3196   3.252   8.313   4.763
  267DOPC   C3B 3197   3.216   7.999   4.396
  267DOPC   C4B 3198   3.270   7.711   3.976
  268DOPC   NC3 3199   9.943   5.926   5.916
  268DOPC   PO4 3200  10.162   5.684   5.682
  268DOPC   GL1 3201  10.388   5.912   5.363
  268DOPC   GL2 3202  10.645   5.831   5.524
  268DOPC   C1A 3203  10.366   5.899   4.894
  268DOPC   D2A 3204  10.365   5.921   4.380
  268DOPC   C3A 3205  10.333   5.849   3.902
  268DOPC   C4A 3206  10.269   5.667   3.427
  268DOPC   C1B 3207  11.016   5.886   5.267
  268DOPC   D2B 3208  11.072   5.893   4.765
  268DOPC   C3B 3209  10.929   5.893   4.325
  268DOPC   C4B 3210  10.845   5.836   3.845
  269DOPC   NC3 3211  16.488   9.016   5.868
  269DOPC   PO4 3212  16.626   9.349   5.700
  269DOPC   GL1 3213  16.433   9.135   5.397
  269DOPC   GL2 3214  16.654   8.918   5.426
  269DOPC   C1A 3215  16.290   9.113   4.983
  269DOPC   D2A 3216  16.164   9.209   4.498
  269DOPC   C3A 3217  16.186   8.965   4.085
  269DOPC   C4A 3218  16.382   8.801   3.660
  269DOPC   C1B 3219  16.625   8.709   5.031
  269DOPC   D2B 3220  16.514   8.602   4.549
  269DOPC   C3B 3221  16.661   8.726   4.109
  269DOPC   C4B 3222  16.864   8.964   3.711
  270DOPC   NC3 3223  11.156   0.038   6.051
  270DOPC   PO4 3224  11.203   0.097   5.659
  270DOPC   GL1 3225  10.898   0.162   5.323
  270DOPC   GL2 3226  10.916   9.849   5.349
  270DOPC   C1A 3227  10.961   0.135   4.875
  270DOPC   D2A 3228  11.041   9.891   4.441
  270DOPC   C3A 3229  11.381   9.908   4.102
  270DOPC   C4A 3230  11.717   9.819   3.738
  270DOPC   C1B 3231  11.037   9.652   4.952
  270DOPC   D2B 3232  11.275   9.439   4.554
  270DOPC   C3B 3233  11.088   9.482   4.122
  270DOPC   C4B 3234  10.823   9.552   3.702
  271DOPC   NC3 3235  13.386   2.795   5.799
  271DOPC   PO4 3236  13.775   2.845   5.729
  271DOPC   GL1 3237  13.664   2.775   5.387
  271DOPC   GL2 3238  13.394   2.818   5.326
  271DOPC   C1A 3239  13.868   2.924   5.050
  271DOPC   D2A 3240  14.053   3.004   4.602
  271DOPC   C3A 3241  13.859   3.003   4.168
  271DOPC   C4A 3242  13.727   2.810   3.738
  271DOPC   C1B 3243  13.406   2.866   4.875
  271DOPC   D2B 3244  13.393   2.860   4.380
  271DOPC   C3B 3245  13.259   2.724   3.948
  271DOPC   C4B 3246  13.135   2.588   3.478
  272DOPC   NC3 3247  17.107   7.389   6.062
  272DOPC   PO4 3248  17.346   7.611   5.824
  272DOPC   GL1 3249  17.267   7.384   5.512
  272DOPC   GL2 3250  17.189   7.117   5.623
  272DOPC   C1A 3251  17.178   7.508   5.089
  272DOPC   D2A 3252  17.094   7.713   4.636
  272DOPC   C3A 3253  17.093   7.639   4.168
  272DOPC   C4A 3254  16.984   7.513   3.696
  272DOPC   C1B 3255  17.207   7.008   5.188
  272DOPC   D2B 3256  17.181   7.111   4.700
  272DOPC   C3B 3257  17.129   7.063   4.235
  272DOPC   C4B 3258  17.131   7.014   3.733
  273DOPC   NC3 3259  13.203   7.072   5.902
  273DOPC   PO4 3260  13.169   6.892   5.549
  273DOPC   GL1 3261  13.373   6.894   5.163
  273DOPC   GL2 3262  13.133   7.083   5.104
  273DOPC   C1A 3263  13.496   6.968   4.748
  273DOPC   D2A 3264  13.476   7.238   4.326
  273DOPC   C3A 3265  13.132   7.243   3.996
  273DOPC   C4A 3266  12.747   6.989   3.808
  273DOPC   C1B 3267  12.777   6.991   4.833
  273DOPC   D2B 3268  12.386   7.128   4.520
  273DOPC   C3B 3269  12.447   7.307   4.081
  273DOPC   C4B 3270  12.610   7.468   3.643
  274DOPC   NC3 3271   6.663   0.487   5.832
  274DOPC   PO4 3272   7.026   0.662   5.785
  274DOPC   GL1 3273   6.942   0.857   5.381
  274DOPC   GL2 3274   6.673   0.693   5.390
  274DOPC   C1A 3275   6.947   0.875   4.934
  274DOPC   D2A 3276   6.819   0.684   4.486
  274DOPC   C3A 3277   6.821   0.713   4.018
  274DOPC   C4A 3278   6.856   0.671   3.527
  274DOPC   C1B 3279   6.595   0.504   4.983
  274DOPC   D2B 3280   6.555   0.215   4.568
  274DOPC   C3B 3281   6.505   0.310   4.104
  274DOPC   C4B 3282   6.489   0.290   3.600
  275DOPC   NC3 3283  15.344   7.158   5.902
  275DOPC   PO4 3284  15.392   7.513   5.707
  275DOPC   GL1 3285  15.298   7.463   5.302
  275DOPC   GL2 3286  15.096   7.210   5.393
  275DOPC   C1A 3287  15.340   7.542   4.847
  275DOPC   D2A 3288  15.307   7.559   4.334
  275DOPC   C3A 3289  15.304   7.737   3.887
  275DOPC   C4A 3290  15.445   7.833   3.413
  275DOPC   C1B 3291  14.874   7.076   5.006
  275DOPC   D2B 3292  14.654   7.077   4.550
  275DOPC   C3B 3293  14.878   7.191   4.159
  275DOPC   C4B 3294  15.156   7.277   3.767
  276DOPC   NC3 3295  10.433   0.665   5.741
  276DOPC   PO4 3296  10.161   0.374   5.708
  276DOPC   GL1 3297  10.235   0.557   5.321
  276DOPC   GL2 3298  10.500   0.397   5.337
  276DOPC   C1A 3299  10.044   0.520   4.924
  276DOPC   D2A 3300  10.120   0.151   4.576
  276DOPC   C3A 3301  10.019   0.347   4.170
  276DOPC   C4A 3302   9.831   0.686   3.867
  276DOPC   C1B 3303  10.498   0.300   4.906
  276DOPC   D2B 3304  10.628   0.200   4.440
  276DOPC   C3B 3305  10.500   0.242   3.995
  276DOPC   C4B 3306  10.141   0.272   3.656
  277DOPC   NC3 3307   4.424   6.081   5.784
  277DOPC   PO4 3308   4.078   5.885   5.725
  277DOPC   GL1 3309   4.199   5.974   5.343
  277DOPC   GL2 3310   4.486   5.913   5.359
  277DOPC   C1A 3311   4.125   5.849   4.939
  277DOPC   D2A 3312   4.115   5.678   4.473
  277DOPC   C3A 3313   4.012   5.931   4.097
  277DOPC   C4A 3314   4.114   6.246   3.728
  277DOPC   C1B 3315   4.634   5.749   4.978
  277DOPC   D2B 3316   4.770   5.672   4.520
  277DOPC   C3B 3317   4.519   5.739   4.128
  277DOPC   C4B 3318   4.286   5.764   3.690
  278DOPC   NC3 3319  19.864   8.329   5.703
  278DOPC   PO4 3320  19.679   8.682   5.743
  278DOPC   GL1 3321  19.446   8.605   5.429
  278DOPC   GL2 3322  19.365   8.320   5.487
  278DOPC   C1A 3323  19.661   8.506   5.054
  278DOPC   D2A 3324  19.798   8.407   4.574
  278DOPC   C3A 3325  19.940   8.494   4.130
  278DOPC   C4A 3326   0.072   8.644   3.664
  278DOPC   C1B 3327  19.332   8.088   5.095
  278DOPC   D2B 3328  19.189   8.044   4.601
  278DOPC   C3B 3329  19.417   8.232   4.221
  278DOPC   C4B 3330  19.612   8.340   3.762
  279DOPC   NC3 3331  15.303   5.283   5.606
  279DOPC   PO4 3332  15.387   4.925   5.777
  279DOPC   GL1 3333  15.159   4.782   5.449
  279DOPC   GL2 3334  14.929   4.982   5.566
  279DOPC   C1A 3335  15.190   4.886   5.010
  279DOPC   D2A 3336  15.381   5.089   4.574
  279DOPC   C3A 3337  15.360   5.010   4.107
  279DOPC   C4A 3338  15.437   4.680   3.753
  279DOPC   C1B 3339  14.895   5.278   5.230
  279DOPC   D2B 3340  14.987   5.371   4.745
  279DOPC   C3B 3341  14.918   5.203   4.298
  279DOPC   C4B 3342  14.894   4.959   3.843
  280DOPC   NC3 3343   4.191   9.589   5.945
  280DOPC   PO4 3344   4.384   9.864   5.732
  280DOPC   GL1 3345   4.221   9.722   5.402
  280DOPC   GL2 3346   4.079   9.477   5.508
  280DOPC   C1A 3347   4.314   9.787   4.972
  280DOPC   D2A 3348   4.369   9.786   4.474
  280DOPC   C3A 3349   4.266   9.897   4.030
  280DOPC   C4A 3350   4.173   9.989   3.542
  280DOPC   C1B 3351   4.064   9.359   5.094
  280DOPC   D2B 3352   4.069   9.369   4.591
  280DOPC   C3B 3353   4.257   9.382   4.143
  280DOPC   C4B 3354   4.403   9.554   3.688
  281DOPC   NC3 3355   8.764   1.193   5.891
  281DOPC   PO4 3356   8.770   1.557   5.724
  281DOPC   GL1 3357   8.645   1.422   5.350
  281DOPC   GL2 3358   8.676   1.132   5.428
  281DOPC   C1A 3359   8.971   1.370   5.042
  281DOPC   D2A 3360   9.291   1.196   4.700
  281DOPC   C3A 3361   9.257   1.336   4.255
  281DOPC   C4A 3362   9.247   1.606   3.834
  281DOPC   C1B 3363   8.892   0.878   5.121
  281DOPC   D2B 3364   9.047   0.760   4.661
  281DOPC   C3B 3365   8.970   0.913   4.228
  281DOPC   C4B 3366   9.054   0.941   3.745
  282DOPC   NC3 3367   6.578   8.494   5.868
  282DOPC   PO4 3368   6.911   8.587   5.682
  282DOPC   GL1 3369   6.671   8.715   5.385
  282DOPC   GL2 3370   6.406   8.770   5.527
  282DOPC   C1A 3371   6.553   8.628   4.970
  282DOPC   D2A 3372   6.553   8.416   4.516
  282DOPC   C3A 3373   6.554   8.648   4.109
  282DOPC   C4A 3374   6.535   8.884   3.676
  282DOPC   C1B 3375   6.166   8.907   5.167
  282DOPC   D2B 3376   6.146   8.861   4.653
  282DOPC   C3B 3377   6.090   8.885   4.177
  282DOPC   C4B 3378   6.043   9.004   3.693
  283DOPC   NC3 3379  10.721   8.405   5.794
  283DOPC   PO4 3380  10.382   8.223   5.707
  283DOPC   GL1 3381  10.554   8.393   5.336
  283DOPC   GL2 3382  10.281   8.481   5.227
  283DOPC   C1A 3383  10.793   8.425   4.969
  283DOPC   D2A 3384  10.922   8.424   4.490
  283DOPC   C3A 3385  10.866   8.125   4.123
  283DOPC   C4A 3386  10.764   7.944   3.665
  283DOPC   C1B 3387  10.329   8.407   4.773
  283DOPC   D2B 3388  10.446   8.383   4.281
  283DOPC   C3B 3389  10.337   8.300   3.829
  283DOPC   C4B 3390  10.208   8.168   3.368
  284DOPC   NC3 3391   2.054   3.535   5.561
  284DOPC   PO4 3392   1.712   3.715   5.658
  284DOPC   GL1 3393   1.504   3.700   5.304
  284DOPC   GL2 3394   1.703   3.445   5.245
  284DOPC   C1A 3395   1.577   3.757   4.897
  284DOPC   D2A 3396   1.807   3.634   4.483
  284DOPC   C3A 3397   1.663   3.819   4.089
  284DOPC   C4A 3398   1.858   4.036   3.710
  284DOPC   C1B 3399   2.054   3.508   4.967
  284DOPC   D2B 3400   2.308   3.591   4.520
  284DOPC   C3B 3401   2.126   3.581   4.073
  284DOPC   C4B 3402   1.767   3.446   3.750
  285DOPC   NC3 3403  18.576   3.492   5.835
  285DOPC   PO4 3404  18.552   3.118   5.700
  285DOPC   GL1 3405  18.548   3.136   5.282
  285DOPC   GL2 3406  18.669   3.436   5.287
  285DOPC   C1A 3407  18.284   3.119   4.930
  285DOPC   D2A 3408  18.439   3.425   4.564
  285DOPC   C3A 3409  18.676   3.533   4.172
  285DOPC   C4A 3410  18.744   3.424   3.691
  285DOPC   C1B 3411  18.760   3.689   4.905
  285DOPC   D2B 3412  19.020   3.902   4.508
  285DOPC   C3B 3413  19.096   3.798   4.033
  285DOPC   C4B 3414  19.256   3.445   3.704
  286DOPC   NC3 3415   2.125   1.189   6.177
  286DOPC   PO4 3416   2.023   1.548   6.020
  286DOPC   GL1 3417   1.972   1.470   5.600
  286DOPC   GL2 3418   2.063   1.167   5.654
  286DOPC   C1A 3419   2.045   1.624   5.175
  286DOPC   D2A 3420   2.104   1.760   4.676
  286DOPC   C3A 3421   1.978   1.707   4.214
  286DOPC   C4A 3422   1.764   1.621   3.769
  286DOPC   C1B 3423   2.212   1.141   5.232
  286DOPC   D2B 3424   2.136   1.245   4.742
  286DOPC   C3B 3425   2.201   1.203   4.274
  286DOPC   C4B 3426   2.401   1.033   3.854
  287DOPC   NC3 3427   4.593   3.901   6.009
  287DOPC   PO4 3428   4.423   3.801   5.654
  287DOPC   GL1 3429   4.611   3.887   5.270
  287DOPC   GL2 3430   4.730   4.151   5.377
  287DOPC   C1A 3431   4.367   3.930   4.880
  287DOPC   D2A 3432   4.069   3.988   4.470
  287DOPC   C3A 3433   4.104   4.002   4.002
  287DOPC   C4A 3434   4.147   3.982   3.517
  287DOPC   C1B 3435   4.496   4.388   5.078
  287DOPC   D2B 3436   4.132   4.423   4.734
  287DOPC   C3B 3437   4.155   4.463   4.259
  287DOPC   C4B 3438   4.207   4.477   3.758
  288DOPC   NC3 3439  11.950   7.282   6.090
  288DOPC   PO4 3440  11.779   7.648   6.032
  288DOPC   GL1 3441  11.748   7.590   5.598
  288DOPC   GL2 3442  11.907   7.318   5.612
  288DOPC   C1A 3443  11.748   7.685   5.145
  288DOPC   D2A 3444  11.668   7.766   4.643
  288DOPC   C3A 3445  11.819   7.770   4.188
  288DOPC   C4A 3446  12.094   7.619   3.794
  288DOPC   C1B 3447  11.995   7.234   5.187
  288DOPC   D2B 3448  11.931   7.312   4.687
  288DOPC   C3B 3449  11.956   7.269   4.213
  288DOPC   C4B 3450  12.080   7.086   3.758
  289DOPC   NC3 3451  17.603   2.146   5.917
  289DOPC   PO4 3452  17.213   2.143   5.949
  289DOPC   GL1 3453  17.123   2.070   5.541
  289DOPC   GL2 3454  17.365   1.860   5.590
  289DOPC   C1A 3455  17.197   2.142   5.099
  289DOPC   D2A 3456  17.382   2.206   4.614
  289DOPC   C3A 3457  17.340   2.238   4.129
  289DOPC   C4A 3458  17.267   2.296   3.625
  289DOPC   C1B 3459  17.613   1.865   5.231
  289DOPC   D2B 3460  17.774   1.899   4.770
  289DOPC   C3B 3461  17.748   1.794   4.305
  289DOPC   C4B 3462  17.766   1.566   3.869
  290DOPC   NC3 3463  16.129   1.054   5.721
  290DOPC   PO4 3464  16.384   0.765   5.611
  290DOPC   GL1 3465  16.291   0.767   5.191
  290DOPC   GL2 3466  16.033   0.907   5.257
  290DOPC   C1A 3467  16.222   0.681   4.757
  290DOPC   D2A 3468  16.167   0.597   4.272
  290DOPC   C3A 3469  16.103   0.940   3.954
  290DOPC   C4A 3470  16.135   1.349   3.673
  290DOPC   C1B 3471  15.830   0.973   4.853
  290DOPC   D2B 3472  15.762   0.983   4.349
  290DOPC   C3B 3473  15.719   1.291   3.982
  290DOPC   C4B 3474  15.706   1.703   3.687
  291DOPC   NC3 3475   0.199   1.087   5.801
  291DOPC   PO4 3476   0.342   1.423   5.632
  291DOPC   GL1 3477   0.055   1.301   5.316
  291DOPC   GL2 3478   0.301   1.105   5.242
  291DOPC   C1A 3479   0.005   1.266   4.880
  291DOPC   D2A 3480   0.091   0.985   4.466
  291DOPC   C3A 3481   0.021   1.138   4.032
  291DOPC   C4A 3482   0.028   1.386   3.599
  291DOPC   C1B 3483   0.475   1.075   4.804
  291DOPC   D2B 3484   0.579   1.060   4.291
  291DOPC   C3B 3485   0.775   1.019   3.843
  291DOPC   C4B 3486   0.760   0.898   3.349
  292DOPC   NC3 3487  15.839   2.247   5.913
  292DOPC   PO4 3488  15.570   2.413   5.664
  292DOPC   GL1 3489  15.682   2.665   5.335
  292DOPC   GL2 3490  15.995   2.620   5.418
  292DOPC   C1A 3491  15.615   2.514   4.918
  292DOPC   D2A 3492  15.430   2.258   4.514
  292DOPC   C3A 3493  15.533   2.240   4.044
  292DOPC   C4A 3494  15.849   2.227   3.655
  292DOPC   C1B 3495  16.095   2.387   5.044
  292DOPC   D2B 3496  15.944   2.248   4.569
  292DOPC   C3B 3497  16.068   2.119   4.122
  292DOPC   C4B 3498  16.207   1.867   3.693
  293DOPC   NC3 3499   1.258   9.395   5.837
  293DOPC   PO4 3500   1.615   9.465   5.659
  293DOPC   GL1 3501   1.454   9.652   5.302
  293DOPC   GL2 3502   1.188   9.503   5.370
  293DOPC   C1A 3503   1.435   9.580   4.866
  293DOPC   D2A 3504   1.236   9.412   4.439
  293DOPC   C3A 3505   1.258   9.422   3.968
  293DOPC   C4A 3506   1.268   9.401   3.465
  293DOPC   C1B 3507   0.936   9.462   4.996
  293DOPC   D2B 3508   0.754   9.567   4.538
  293DOPC   C3B 3509   0.871   9.739   4.107
  293DOPC   C4B 3510   1.113   9.853   3.674
  294DOPC   NC3 3511  12.075   1.118   6.074
  294DOPC   PO4 3512  12.298   1.391   5.879
  294DOPC   GL1 3513  12.172   1.336   5.487
  294DOPC   GL2 3514  11.940   1.157   5.546
  294DOPC   C1A 3515  12.241   1.346   5.052
  294DOPC   D2A 3516  12.286   1.369   4.544
  294DOPC   C3A 3517  11.929   1.487   4.243
  294DOPC   C4A 3518  11.673   1.585   3.817
  294DOPC   C1B 3519  11.806   1.075   5.127
  294DOPC   D2B 3520  11.913   1.051   4.635
  294DOPC   C3B 3521  11.763   1.014   4.193
  294DOPC   C4B 3522  12.010   1.192   3.802
  295DOPC   NC3 3523   6.299   8.056   5.840
  295DOPC   PO4 3524   6.132   8.379   5.651
  295DOPC   GL1 3525   6.383   8.356   5.310
  295DOPC   GL2 3526   6.621   8.244   5.472
  295DOPC   C1A 3527   6.428   8.126   4.921
  295DOPC   D2A 3528   6.449   7.901   4.482
  295DOPC   C3A 3529   6.369   8.161   4.092
  295DOPC   C4A 3530   6.161   8.501   3.790
  295DOPC   C1B 3531   6.846   8.004   5.163
  295DOPC   D2B 3532   6.940   7.906   4.678
  295DOPC   C3B 3533   6.876   8.060   4.232
  295DOPC   C4B 3534   6.723   8.011   3.756
  296DOPC   NC3 3535  16.458   6.498   5.573
  296DOPC   PO4 3536  16.830   6.616   5.660
  296DOPC   GL1 3537  16.795   6.915   5.367
  296DOPC   GL2 3538  16.504   6.960   5.454
  296DOPC   C1A 3539  16.814   6.745   4.936
  296DOPC   D2A 3540  16.874   6.630   4.449
  296DOPC   C3A 3541  16.827   6.697   3.984
  296DOPC   C4A 3542  16.800   6.695   3.476
  296DOPC   C1B 3543  16.323   6.743   5.114
  296DOPC   D2B 3544  16.385   6.648   4.637
  296DOPC   C3B 3545  16.363   6.785   4.199
  296DOPC   C4B 3546  16.368   6.670   3.722
  297DOPC   NC3 3547  10.679   4.380   5.809
  297DOPC   PO4 3548  10.328   4.333   5.640
  297DOPC   GL1 3549  10.619   4.132   5.347
  297DOPC   GL2 3550  10.775   4.389   5.332
  297DOPC   C1A 3551  10.687   3.926   4.950
  297DOPC   D2A 3552  10.822   3.735   4.496
  297DOPC   C3A 3553  10.608   3.937   4.131
  297DOPC   C4A 3554  10.343   4.125   3.742
  297DOPC   C1B 3555  10.883   4.379   4.884
  297DOPC   D2B 3556  10.958   4.232   4.391
  297DOPC   C3B 3557  10.840   4.396   3.941
  297DOPC   C4B 3558  10.888   4.743   3.569
  298DOPC   NC3 3559   8.041   2.777   5.921
  298DOPC   PO4 3560   7.803   2.545   5.698
  298DOPC   GL1 3561   7.568   2.764   5.388
  298DOPC   GL2 3562   7.859   2.753   5.257
  298DOPC   C1A 3563   7.522   3.011   5.030
  298DOPC   D2A 3564   7.687   3.169   4.576
  298DOPC   C3A 3565   7.817   2.931   4.192
  298DOPC   C4A 3566   7.988   2.755   3.751
  298DOPC   C1B 3567   7.837   2.693   4.805
  298DOPC   D2B 3568   7.888   2.459   4.353
  298DOPC   C3B 3569   8.017   2.276   3.938
  298DOPC   C4B 3570   8.317   2.201   3.542
  299DOPC   NC3 3571   2.542   8.370   5.974
  299DOPC   PO4 3572   2.619   8.677   5.720
  299DOPC   GL1 3573   2.599   8.642   5.277
  299DOPC   GL2 3574   2.419   8.394   5.305
  299DOPC   C1A 3575   2.800   8.588   4.864
  299DOPC   D2A 3576   2.894   8.423   4.393
  299DOPC   C3A 3577   2.708   8.414   3.957
  299DOPC   C4A 3578   2.369   8.308   3.609
  299DOPC   C1B 3579   2.462   8.200   4.894
  299DOPC   D2B 3580   2.678   7.924   4.519
  299DOPC   C3B 3581   2.811   7.931   4.067
  299DOPC   C4B 3582   2.877   8.041   3.583
  300DOPC   NC3 3583   5.792   8.157   5.962
  300DOPC   PO4 3584   5.795   7.839   5.714
  300DOPC   GL1 3585   5.568   7.946   5.353
  300DOPC   GL2 3586   5.748   8.188   5.427
  300DOPC   C1A 3587   5.513   8.119   4.949
  300DOPC   D2A 3588   5.379   8.298   4.494
  300DOPC   C3A 3589   5.406   8.060   4.090
  300DOPC   C4A 3590   5.467   7.736   3.714
  300DOPC   C1B 3591   5.987   7.993   5.115
  300DOPC   D2B 3592   5.952   7.917   4.626
  300DOPC   C3B 3593   5.901   7.998   4.163
  300DOPC   C4B 3594   5.771   8.140   3.705
  301DOPC   NC3 3595   5.128   3.327   5.673
  301DOPC   PO4 3596   4.875   3.008   5.660
  301DOPC   GL1 3597   4.631   3.178   5.311
  301DOPC   GL2 3598   4.713   3.452   5.379
  301DOPC   C1A 3599   4.619   3.113   4.853
  301DOPC   D2A 3600   4.602   3.178   4.355
  301DOPC   C3A 3601   4.798   3.302   3.940
  301DOPC   C4A 3602   4.893   3.329   3.449
  301DOPC   C1B 3603   4.754   3.593   4.946
  301DOPC   D2B 3604   4.724   3.765   4.460
  301DOPC   C3B 3605   4.948   3.821   4.037
  301DOPC   C4B 3606   5.334   3.888   3.716
  302DOPC   NC3 3607   1.973   4.411   5.715
  302DOPC   PO4 3608   2.137   4.049   5.642
  302DOPC   GL1 3609   1.947   3.900   5.258
  302DOPC   GL2 3610   1.736   4.108   5.371
  302DOPC   C1A 3611   2.041   3.981   4.810
  302DOPC   D2A 3612   2.107   4.027   4.308
  302DOPC   C3A 3613   2.326   4.039   3.890
  302DOPC   C4A 3614   2.297   4.133   3.401
  302DOPC   C1B 3615   1.612   4.258   4.984
  302DOPC   D2B 3616   1.612   4.119   4.513
  302DOPC   C3B 3617   1.733   4.342   4.122
  302DOPC   C4B 3618   1.938   4.566   3.734
  303DOPC   NC3 3619  16.102   0.534   5.964
  303DOPC   PO4 3620  15.814   0.271   5.853
  303DOPC   GL1 3621  16.074   0.144   5.523
  303DOPC   GL2 3622  16.062   0.453   5.451
  303DOPC   C1A 3623  16.170   0.053   5.108
  303DOPC   D2A 3624  16.065   0.177   4.634
  303DOPC   C3A 3625  15.972   0.153   4.171
  303DOPC   C4A 3626  15.896   0.186   3.678
  303DOPC   C1B 3627  15.864   0.472   5.034
  303DOPC   D2B 3628  15.680   0.500   4.542
  303DOPC   C3B 3629  15.690   0.569   4.059
  303DOPC   C4B 3630  15.774   0.743   3.596
  304DOPC   NC3 3631  20.000   6.018   5.718
  304DOPC   PO4 3632   0.262   5.742   5.849
  304DOPC   GL1 3633   0.236   5.423   5.543
  304DOPC   GL2 3634   0.542   5.406   5.523
  304DOPC   C1A 3635   0.196   5.390   5.099
  304DOPC   D2A 3636   0.443   5.405   4.648
  304DOPC   C3A 3637   0.408   5.596   4.220
  304DOPC   C4A 3638   0.225   5.650   3.758
  304DOPC   C1B 3639   0.693   5.531   5.102
  304DOPC   D2B 3640   0.831   5.747   4.657
  304DOPC   C3B 3641   0.806   5.973   4.240
  304DOPC   C4B 3642   0.582   6.027   3.804
  305DOPC   NC3 3643   5.048   7.589   5.874
  305DOPC   PO4 3644   5.353   7.564   5.613
  305DOPC   GL1 3645   5.392   7.275   5.269
  305DOPC   GL2 3646   5.136   7.127   5.346
  305DOPC   C1A 3647   5.378   7.252   4.823
  305DOPC   D2A 3648   5.112   7.342   4.422
  305DOPC   C3A 3649   5.140   7.413   3.965
  305DOPC   C4A 3650   5.112   7.476   3.480
  305DOPC   C1B 3651   4.933   7.031   4.938
  305DOPC   D2B 3652   4.737   6.982   4.454
  305DOPC   C3B 3653   4.738   7.042   3.961
  305DOPC   C4B 3654   4.722   6.938   3.458
  306DOPC   NC3 3655   1.714   8.342   5.689
  306DOPC   PO4 3656   2.066   8.535   5.764
  306DOPC   GL1 3657   2.128   8.714   5.363
  306DOPC   GL2 3658   1.951   8.459   5.272
  306DOPC   C1A 3659   2.274   8.695   4.943
  306DOPC   D2A 3660   2.404   8.625   4.461
  306DOPC   C3A 3661   2.223   8.598   4.023
  306DOPC   C4A 3662   1.887   8.485   3.673
  306DOPC   C1B 3663   1.940   8.337   4.826
  306DOPC   D2B 3664   1.900   8.311   4.314
  306DOPC   C3B 3665   2.071   8.060   3.950
  306DOPC   C4B 3666   2.439   7.808   3.734
  307DOPC   NC3 3667  18.177   5.726   6.031
  307DOPC   PO4 3668  18.111   5.482   5.711
  307DOPC   GL1 3669  18.311   5.556   5.281
  307DOPC   GL2 3670  18.314   5.843   5.405
  307DOPC   C1A 3671  18.414   5.671   4.835
  307DOPC   D2A 3672  18.502   5.790   4.340
  307DOPC   C3A 3673  18.253   5.674   3.946
  307DOPC   C4A 3674  17.856   5.525   3.666
  307DOPC   C1B 3675  18.424   6.122   5.075
  307DOPC   D2B 3676  18.402   6.372   4.645
  307DOPC   C3B 3677  18.303   6.251   4.206
  307DOPC   C4B 3678  18.208   6.161   3.737
  308DOPC   NC3 3679   8.116   9.475   6.002
  308DOPC   PO4 3680   8.430   9.467   5.756
  308DOPC   GL1 3681   8.253   9.310   5.378
  308DOPC   GL2 3682   8.014   9.473   5.506
  308DOPC   C1A 3683   8.333   9.380   4.924
  308DOPC   D2A 3684   8.387   9.442   4.420
  308DOPC   C3A 3685   8.187   9.332   4.010
  308DOPC   C4A 3686   7.894   9.231   3.613
  308DOPC   C1B 3687   8.108   9.763   5.173
  308DOPC   D2B 3688   8.230   9.852   4.687
  308DOPC   C3B 3689   8.072   9.803   4.230
  308DOPC   C4B 3690   7.863   9.722   3.776
  309DOPC   NC3 3691  13.471   0.422   5.826
  309DOPC   PO4 3692  13.604   0.744   5.634
  309DOPC   GL1 3693  13.607   0.530   5.260
  309DOPC   GL2 3694  13.341   0.391   5.344
  309DOPC   C1A 3695  13.684   0.579   4.812
  309DOPC   D2A 3696  13.811   0.531   4.321
  309DOPC   C3A 3697  13.760   0.525   3.856
  309DOPC   C4A 3698  13.690   0.452   3.372
  309DOPC   C1B 3699  13.200   0.525   4.940
  309DOPC   D2B 3700  13.309   0.729   4.481
  309DOPC   C3B 3701  13.284   0.501   4.068
  309DOPC   C4B 3702  13.333   0.214   3.658
  310DOPC   NC3 3703   5.169   2.586   5.649
  310DOPC   PO4 3704   4.794   2.441   5.645
  310DOPC   GL1 3705   4.842   2.478   5.268
  310DOPC   GL2 3706   4.927   2.764   5.252
  310DOPC   C1A 3707   4.956   2.278   4.906
  310DOPC   D2A 3708   4.924   2.151   4.433
  310DOPC   C3A 3709   4.977   2.385   4.024
  310DOPC   C4A 3710   5.155   2.574   3.599
  310DOPC   C1B 3711   4.996   2.777   4.814
  310DOPC   D2B 3712   4.984   2.806   4.313
  310DOPC   C3B 3713   5.188   2.966   3.914
  310DOPC   C4B 3714   5.337   3.027   3.436
  311DOPC   NC3 3715  15.774   4.645   5.673
  311DOPC   PO4 3716  15.469   4.388   5.612
  311DOPC   GL1 3717  15.554   4.632   5.230
  311DOPC   GL2 3718  15.819   4.461   5.248
  311DOPC   C1A 3719  15.597   4.655   4.778
  311DOPC   D2A 3720  15.701   4.644   4.276
  311DOPC   C3A 3721  15.661   4.283   3.964
  311DOPC   C4A 3722  15.642   4.301   3.469
  311DOPC   C1B 3723  15.795   4.054   5.057
  311DOPC   D2B 3724  15.717   3.776   4.646
  311DOPC   C3B 3725  15.928   3.967   4.258
  311DOPC   C4B 3726  16.146   4.118   3.827
  312DOPC   NC3 3727  18.056   6.847   5.831
  312DOPC   PO4 3728  18.412   6.643   5.823
  312DOPC   GL1 3729  18.332   6.459   5.418
  312DOPC   GL2 3730  18.361   6.768   5.355
  312DOPC   C1A 3731  17.963   6.304   5.163
  312DOPC   D2A 3732  17.607   6.177   4.818
  312DOPC   C3A 3733  17.597   6.227   4.340
  312DOPC   C4A 3734  17.702   6.320   3.856
  312DOPC   C1B 3735  18.170   6.728   4.974
  312DOPC   D2B 3736  17.907   6.533   4.614
  312DOPC   C3B 3737  17.961   6.629   4.170
  312DOPC   C4B 3738  18.071   6.669   3.697
  313DOPC   NC3 3739   2.497   9.530   6.240
  313DOPC   PO4 3740   2.693   9.546   5.895
  313DOPC   GL1 3741   2.447   9.586   5.543
  313DOPC   GL2 3742   2.645   9.831   5.465
  313DOPC   C1A 3743   2.441   9.495   5.131
  313DOPC   D2A 3744   2.669   9.510   4.690
  313DOPC   C3A 3745   2.592   9.411   4.246
  313DOPC   C4A 3746   2.552   9.304   3.772
  313DOPC   C1B 3747   2.795   9.879   5.057
  313DOPC   D2B 3748   3.023   9.983   4.618
  313DOPC   C3B 3749   2.943   9.794   4.205
  313DOPC   C4B 3750   2.973   9.625   3.743
  314DOPC   NC3 3751   3.336   5.251   5.955
  314DOPC   PO4 3752   3.048   5.167   5.692
  314DOPC   GL1 3753   3.247   5.299   5.362
  314DOPC   GL2 3754   3.514   5.203   5.462
  314DOPC   C1A 3755   3.219   5.097   4.981
  314DOPC   D2A 3756   3.120   4.826   4.573
  314DOPC   C3A 3757   3.303   5.048   4.212
  314DOPC   C4A 3758   3.392   5.317   3.816
  314DOPC   C1B 3759   3.718   5.004   5.110
  314DOPC   D2B 3760   3.822   4.818   4.657
  314DOPC   C3B 3761   3.823   4.870   4.191
  314DOPC   C4B 3762   4.016   4.967   3.754
  315DOPC   NC3 3763  16.626   2.783   5.782
  315DOPC   PO4 3764  16.913   2.515   5.731
  315DOPC   GL1 3765  16.807   2.726   5.357
  315DOPC   GL2 3766  16.504   2.620   5.378
  315DOPC   C1A 3767  16.875   2.881   4.941
  315DOPC   D2A 3768  16.979   2.644   4.512
  315DOPC   C3A 3769  16.823   2.908   4.158
  315DOPC   C4A 3770  16.572   2.821   3.745
  315DOPC   C1B 3771  16.369   2.817   5.024
  315DOPC   D2B 3772  16.494   2.884   4.550
  315DOPC   C3B 3773  16.341   2.635   4.179
  315DOPC   C4B 3774  16.441   2.301   3.819
  316DOPC   NC3 3775  16.719   2.096   5.915
  316DOPC   PO4 3776  16.428   2.295   5.726
  316DOPC   GL1 3777  16.730   2.237   5.423
  316DOPC   GL2 3778  16.657   1.949   5.429
  316DOPC   C1A 3779  16.733   2.401   5.028
  316DOPC   D2A 3780  16.424   2.395   4.652
  316DOPC   C3A 3781  16.683   2.280   4.297
  316DOPC   C4A 3782  16.915   2.469   3.926
  316DOPC   C1B 3783  16.458   1.960   5.018
  316DOPC   D2B 3784  16.323   1.893   4.530
  316DOPC   C3B 3785  16.525   1.842   4.103
  316DOPC   C4B 3786  16.867   1.974   3.763
  317DOPC   NC3 3787   8.601   3.807   6.084
  317DOPC   PO4 3788   8.502   4.052   5.774
  317DOPC   GL1 3789   8.415   3.988   5.336
  317DOPC   GL2 3790   8.360   3.687   5.366
  317DOPC   C1A 3791   8.511   3.915   4.898
  317DOPC   D2A 3792   8.506   3.692   4.437
  317DOPC   C3A 3793   8.814   3.663   4.060
  317DOPC   C4A 3794   9.135   3.822   3.705
  317DOPC   C1B 3795   8.428   3.428   4.969
  317DOPC   D2B 3796   8.602   3.198   4.526
  317DOPC   C3B 3797   8.542   3.191   4.049
  317DOPC   C4B 3798   8.481   3.220   3.555
  318DOPC   NC3 3799   1.236   1.237   5.786
  318DOPC   PO4 3800   1.591   1.161   5.610
  318DOPC   GL1 3801   1.595   1.489   5.318
  318DOPC   GL2 3802   1.292   1.541   5.413
  318DOPC   C1A 3803   1.665   1.469   4.871
  318DOPC   D2A 3804   1.672   1.335   4.381
  318DOPC   C3A 3805   1.758   1.153   3.945
  318DOPC   C4A 3806   1.569   1.225   3.471
  318DOPC   C1B 3807   0.979   1.536   5.082
  318DOPC   D2B 3808   0.772   1.591   4.627
  318DOPC   C3B 3809   0.989   1.390   4.264
  318DOPC   C4B 3810   1.257   1.261   3.876
  319DOPC   NC3 3811   1.325   9.897   5.703
  319DOPC   PO4 3812   0.941   9.823   5.611
  319DOPC   GL1 3813   0.918   9.905   5.224
  319DOPC   GL2 3814   0.769   0.180   5.241
  319DOPC   C1A 3815   1.080   9.931   4.816
  319DOPC   D2A 3816   1.247   0.082   4.376
  319DOPC   C3A 3817   1.184   0.270   3.958
  319DOPC   C4A 3818   0.914   0.449   3.594
  319DOPC   C1B 3819   0.840   0.396   4.839
  319DOPC   D2B 3820   0.941   0.565   4.354
  319DOPC   C3B 3821   1.282   0.759   4.060
  319DOPC   C4B 3822   1.673   0.691   3.741
  320DOPC   NC3 3823   1.195   6.931   5.827
  320DOPC   PO4 3824   0.842   7.068   5.670
  320DOPC   GL1 3825   0.911   7.111   5.194
  320DOPC   GL2 3826   1.050   6.841   5.264
  320DOPC   C1A 3827   0.998   7.094   4.732
  320DOPC   D2A 3828   1.139   6.911   4.273
  320DOPC   C3A 3829   1.003   6.970   3.819
  320DOPC   C4A 3830   1.066   7.166   3.350
  320DOPC   C1B 3831   1.208   6.648   4.876
  320DOPC   D2B 3832   1.172   6.400   4.434
  320DOPC   C3B 3833   1.147   6.437   3.962
  320DOPC   C4B 3834   1.328   6.338   3.505
  321DOPC   NC3 3835  13.739   4.883   5.762
  321DOPC   PO4 3836  13.500   5.191   5.862
  321DOPC   GL1 3837  13.440   5.188   5.401
  321DOPC   GL2 3838  13.328   4.904   5.490
  321DOPC   C1A 3839  13.556   5.203   4.935
  321DOPC   D2A 3840  13.584   5.214   4.419
  321DOPC   C3A 3841  13.524   5.322   3.943
  321DOPC   C4A 3842  13.525   5.570   3.497
  321DOPC   C1B 3843  13.535   4.722   5.134
  321DOPC   D2B 3844  13.769   4.769   4.690
  321DOPC   C3B 3845  13.588   4.730   4.255
  321DOPC   C4B 3846  13.352   4.696   3.831
  322DOPC   NC3 3847  14.606   6.545   5.748
  322DOPC   PO4 3848  14.501   6.172   5.685
  322DOPC   GL1 3849  14.436   6.334   5.321
  322DOPC   GL2 3850  14.294   6.597   5.389
  322DOPC   C1A 3851  14.496   6.255   4.887
  322DOPC   D2A 3852  14.566   6.164   4.397
  322DOPC   C3A 3853  14.572   6.438   4.008
  322DOPC   C4A 3854  14.541   6.754   3.628
  322DOPC   C1B 3855  14.357   6.753   4.975
  322DOPC   D2B 3856  14.398   6.644   4.483
  322DOPC   C3B 3857  14.381   6.928   4.111
  322DOPC   C4B 3858  14.054   6.868   3.749
  323DOPC   NC3 3859   1.018   8.951   5.929
  323DOPC   PO4 3860   0.930   8.672   5.651
  323DOPC   GL1 3861   1.228   8.744   5.375
  323DOPC   GL2 3862   1.272   9.045   5.495
  323DOPC   C1A 3863   1.073   8.691   4.941
  323DOPC   D2A 3864   0.995   8.569   4.452
  323DOPC   C3A 3865   0.944   8.573   3.978
  323DOPC   C4A 3866   0.897   8.611   3.480
  323DOPC   C1B 3867   1.354   9.125   5.079
  323DOPC   D2B 3868   1.392   8.943   4.615
  323DOPC   C3B 3869   1.271   8.946   4.174
  323DOPC   C4B 3870   1.119   8.988   3.712
  324DOPC   NC3 3871  18.294   0.381   5.521
  324DOPC   PO4 3872  17.944   0.204   5.434
  324DOPC   GL1 3873  17.822   0.509   5.144
  324DOPC   GL2 3874  18.011   0.702   5.293
  324DOPC   C1A 3875  17.912   0.529   4.698
  324DOPC   D2A 3876  17.900   0.643   4.191
  324DOPC   C3A 3877  17.766   0.488   3.756
  324DOPC   C4A 3878  17.737   0.320   3.280
  324DOPC   C1B 3879  18.344   0.618   5.014
  324DOPC   D2B 3880  18.684   0.623   4.641
  324DOPC   C3B 3881  18.520   0.611   4.201
  324DOPC   C4B 3882  18.273   0.607   3.775
  325DOPC   NC3 3883  17.138   3.886   6.002
  325DOPC   PO4 3884  17.156   4.113   5.675
  325DOPC   GL1 3885  17.350   3.959   5.358
  325DOPC   GL2 3886  17.622   4.096   5.390
  325DOPC   C1A 3887  17.112   3.963   4.979
  325DOPC   D2A 3888  16.861   3.866   4.542
  325DOPC   C3A 3889  16.997   4.025   4.111
  325DOPC   C4A 3890  17.359   4.174   3.792
  325DOPC   C1B 3891  17.685   4.290   4.971
  325DOPC   D2B 3892  17.708   4.477   4.487
  325DOPC   C3B 3893  17.699   4.506   4.005
  325DOPC   C4B 3894  17.583   4.574   3.511
  326DOPC   NC3 3895  13.462   1.283   5.841
  326DOPC   PO4 3896  13.131   1.073   5.746
  326DOPC   GL1 3897  13.250   0.922   5.334
  326DOPC   GL2 3898  13.489   1.120   5.383
  326DOPC   C1A 3899  13.218   1.052   4.894
  326DOPC   D2A 3900  12.973   1.140   4.463
  326DOPC   C3A 3901  13.162   1.078   4.033
  326DOPC   C4A 3902  13.394   1.240   3.626
  326DOPC   C1B 3903  13.729   1.074   5.014
  326DOPC   D2B 3904  13.789   0.998   4.528
  326DOPC   C3B 3905  13.924   1.053   4.080
  326DOPC   C4B 3906  13.871   1.407   3.743
  327DOPC   NC3 3907  13.514   9.575   5.688
  327DOPC   PO4 3908  13.132   9.469   5.603
  327DOPC   GL1 3909  13.372   9.166   5.478
  327DOPC   GL2 3910  13.215   9.024   5.291
  327DOPC   C1A 3911  13.640   9.302   5.158
  327DOPC   D2A 3912  13.740   9.284   4.658
  327DOPC   C3A 3913  13.594   9.201   4.214
  327DOPC   C4A 3914  13.474   9.069   3.746
  327DOPC   C1B 3915  13.401   8.935   4.876
  327DOPC   D2B 3916  13.709   8.777   4.492
  327DOPC   C3B 3917  13.653   8.680   4.029
  327DOPC   C4B 3918  13.681   8.619   3.528
  328DOPC   NC3 3919   0.107   9.655   1.330
  328DOPC   PO4 3920   0.170   0.056   1.359
  328DOPC   GL1 3921   0.110   0.034   1.785
  328DOPC   GL2 3922  19.815   0.145   1.785
  328DOPC   C1A 3923   0.122   9.633   1.998
  328DOPC   D2A 3924   0.188   9.217   2.302
  328DOPC   C3A 3925   0.088   9.229   2.767
  328DOPC   C4A 3926  19.971   9.506   3.173
  328DOPC   C1B 3927  19.530   0.040   2.141
  328DOPC   D2B 3928  19.231   9.977   2.562
  328DOPC   C3B 3929  19.146   9.769   2.987
  328DOPC   C4B 3930  19.188   9.498   3.416
  329DOPC   NC3 3931  13.429   1.187   1.210
  329DOPC   PO4 3932  13.652   1.470   1.377
  329DOPC   GL1 3933  13.339   1.407   1.688
  329DOPC   GL2 3934  13.424   1.111   1.679
  329DOPC   C1A 3935  13.197   1.401   2.103
  329DOPC   D2A 3936  13.264   1.132   2.490
  329DOPC   C3A 3937  13.448   1.274   2.880
  329DOPC   C4A 3938  13.751   1.348   3.254
  329DOPC   C1B 3939  13.608   1.074   2.089
  329DOPC   D2B 3940  13.752   0.979   2.568
  329DOPC   C3B 3941  13.706   0.864   3.036
  329DOPC   C4B 3942  13.789   0.932   3.535
  330DOPC   NC3 3943  10.641   1.692   1.108
  330DOPC   PO4 3944  10.508   1.948   1.389
  330DOPC   GL1 3945  10.849   1.932   1.651
  330DOPC   GL2 3946  10.878   2.236   1.671
  330DOPC   C1A 3947  10.768   1.707   2.037
  330DOPC   D2A 3948  10.547   1.496   2.453
  330DOPC   C3A 3949  10.379   1.648   2.880
  330DOPC   C4A 3950  10.010   1.696   3.224
  330DOPC   C1B 3951  10.693   2.225   2.075
  330DOPC   D2B 3952  10.569   2.019   2.523
  330DOPC   C3B 3953  10.405   2.167   2.943
  330DOPC   C4B 3954  10.104   2.421   3.232
  331DOPC   NC3 3955  10.001   5.626   1.223
  331DOPC   PO4 3956  10.380   5.584   1.339
  331DOPC   GL1 3957  10.267   5.523   1.719
  331DOPC   GL2 3958  10.070   5.769   1.666
  331DOPC   C1A 3959  10.408   5.539   2.126
  331DOPC   D2A 3960  10.402   5.725   2.587
  331DOPC   C3A 3961  10.114   5.637   2.932
  331DOPC   C4A 3962   9.756   5.700   3.264
  331DOPC   C1B 3963   9.895   5.973   1.999
  331DOPC   D2B 3964   9.843   5.806   2.464
  331DOPC   C3B 3965   9.744   6.028   2.858
  331DOPC   C4B 3966   9.752   6.317   3.251
  332DOPC   NC3 3967  16.732   4.726   1.220
  332DOPC   PO4 3968  16.468   4.556   1.467
  332DOPC   GL1 3969  16.473   4.865   1.731
  332DOPC   GL2 3970  16.631   5.060   1.544
  332DOPC   C1A 3971  16.588   4.859   2.181
  332DOPC   D2A 3972  16.642   4.917   2.686
  332DOPC   C3A 3973  16.509   4.819   3.135
  332DOPC   C4A 3974  16.484   4.605   3.597
  332DOPC   C1B 3975  16.656   5.363   1.845
  332DOPC   D2B 3976  16.548   5.421   2.326
  332DOPC   C3B 3977  16.476   5.406   2.784
  332DOPC   C4B 3978  16.408   5.432   3.268
  333DOPC   NC3 3979  17.337   1.155   1.260
  333DOPC   PO4 3980  17.675   1.063   1.456
  333DOPC   GL1 3981  17.521   1.285   1.794
  333DOPC   GL2 3982  17.225   1.281   1.694
  333DOPC   C1A 3983  17.498   1.466   2.208
  333DOPC   D2A 3984  17.448   1.741   2.628
  333DOPC   C3A 3985  17.462   1.588   3.065
  333DOPC   C4A 3986  17.779   1.741   3.402
  333DOPC   C1B 3987  17.046   1.272   2.091
  333DOPC   D2B 3988  17.171   1.301   2.580
  333DOPC   C3B 3989  17.193   1.109   3.012
  333DOPC   C4B 3990  17.001   0.908   3.421
  334DOPC   NC3 3991   9.255   3.882   0.941
  334DOPC   PO4 3992   9.111   3.915   1.305
  334DOPC   GL1 3993   9.072   4.259   1.519
  334DOPC   GL2 3994   8.759   4.282   1.430
  334DOPC   C1A 3995   9.158   4.077   1.938
  334DOPC   D2A 3996   9.116   3.763   2.333
  334DOPC   C3A 3997   9.085   3.837   2.782
  334DOPC   C4A 3998   9.003   3.998   3.236
  334DOPC   C1B 3999   8.678   4.256   1.858
  334DOPC   D2B 4000   8.794   4.178   2.342
  334DOPC   C3B 4001   8.684   4.186   2.800
  334DOPC   C4B 4002   8.484   4.146   3.246
  335DOPC   NC3 4003  15.938   9.521   0.966
  335DOPC   PO4 4004  15.798   9.837   1.155
  335DOPC   GL1 4005  15.559   9.846   1.525
  335DOPC   GL2 4006  15.480   9.550   1.471
  335DOPC   C1A 4007  15.810   9.738   1.882
  335DOPC   D2A 4008  15.916   9.453   2.284
  335DOPC   C3A 4009  15.959   9.611   2.725
  335DOPC   C4A 4010  15.957   9.933   3.106
  335DOPC   C1B 4011  15.548   9.271   1.823
  335DOPC   D2B 4012  15.612   9.042   2.267
  335DOPC   C3B 4013  15.634   9.200   2.706
  335DOPC   C4B 4014  15.806   9.346   3.156
  336DOPC   NC3 4015   4.702   9.655   1.209
  336DOPC   PO4 4016   4.988   9.396   1.318
  336DOPC   GL1 4017   5.201   9.242   1.676
  336DOPC   GL2 4018   4.941   9.284   1.826
  336DOPC   C1A 4019   5.404   9.365   2.042
  336DOPC   D2A 4020   5.400   9.571   2.510
  336DOPC   C3A 4021   5.101   9.471   2.872
  336DOPC   C4A 4022   4.838   9.388   3.299
  336DOPC   C1B 4023   4.967   9.584   2.186
  336DOPC   D2B 4024   4.924   9.906   2.578
  336DOPC   C3B 4025   5.027   9.952   3.042
  336DOPC   C4B 4026   5.045   0.121   3.515
  337DOPC   NC3 4027   2.594   8.995   1.335
  337DOPC   PO4 4028   2.644   8.598   1.259
  337DOPC   GL1 4029   2.871   8.476   1.633
  337DOPC   GL2 4030   2.903   8.787   1.648
  337DOPC   C1A 4031   3.032   8.486   2.058
  337DOPC   D2A 4032   3.154   8.513   2.549
  337DOPC   C3A 4033   2.826   8.701   2.842
  337DOPC   C4A 4034   2.879   8.960   3.263
  337DOPC   C1B 4035   2.688   8.944   2.009
  337DOPC   D2B 4036   2.554   9.225   2.411
  337DOPC   C3B 4037   2.637   9.248   2.866
  337DOPC   C4B 4038   2.429   9.181   3.304
  338DOPC   NC3 4039   8.855   8.134   1.196
  338DOPC   PO4 4040   8.656   8.474   1.267
  338DOPC   GL1 4041   8.734   8.532   1.690
  338DOPC   GL2 4042   8.839   8.236   1.666
  338DOPC   C1A 4043   8.844   8.481   2.120
  338DOPC   D2A 4044   8.903   8.501   2.621
  338DOPC   C3A 4045   8.928   8.423   3.080
  338DOPC   C4A 4046   9.044   8.322   3.546
  338DOPC   C1B 4047   8.711   7.931   1.986
  338DOPC   D2B 4048   8.627   7.692   2.434
  338DOPC   C3B 4049   8.654   7.949   2.841
  338DOPC   C4B 4050   8.548   8.153   3.296
  339DOPC   NC3 4051  13.113   5.046   0.997
  339DOPC   PO4 4052  13.044   4.803   1.309
  339DOPC   GL1 4053  12.908   5.021   1.627
  339DOPC   GL2 4054  12.635   4.904   1.582
  339DOPC   C1A 4055  13.050   4.823   2.002
  339DOPC   D2A 4056  13.237   4.978   2.434
  339DOPC   C3A 4057  13.042   4.988   2.853
  339DOPC   C4A 4058  12.826   4.850   3.279
  339DOPC   C1B 4059  12.538   4.921   2.002
  339DOPC   D2B 4060  12.667   5.033   2.474
  339DOPC   C3B 4061  12.556   4.775   2.843
  339DOPC   C4B 4062  12.390   4.503   3.219
  340DOPC   NC3 4063  10.686   8.903   1.022
  340DOPC   PO4 4064  10.764   9.270   1.160
  340DOPC   GL1 4065  10.988   9.076   1.464
  340DOPC   GL2 4066  10.749   8.909   1.554
  340DOPC   C1A 4067  11.078   9.166   1.863
  340DOPC   D2A 4068  10.967   9.243   2.336
  340DOPC   C3A 4069  10.732   9.287   2.743
  340DOPC   C4A 4070  10.468   9.381   3.158
  340DOPC   C1B 4071  10.601   8.930   2.003
  340DOPC   D2B 4072  10.431   8.916   2.492
  340DOPC   C3B 4073  10.512   8.839   2.960
  340DOPC   C4B 4074  10.467   8.646   3.420
  341DOPC   NC3 4075   4.441   7.122   0.960
  341DOPC   PO4 4076   4.781   7.099   1.165
  341DOPC   GL1 4077   4.571   6.900   1.476
  341DOPC   GL2 4078   4.415   7.180   1.444
  341DOPC   C1A 4079   4.486   6.952   1.885
  341DOPC   D2A 4080   4.470   7.201   2.299
  341DOPC   C3A 4081   4.466   7.146   2.743
  341DOPC   C4A 4082   4.310   7.176   3.197
  341DOPC   C1B 4083   4.421   7.448   1.798
  341DOPC   D2B 4084   4.350   7.681   2.239
  341DOPC   C3B 4085   4.392   7.722   2.699
  341DOPC   C4B 4086   4.346   7.739   3.177
  342DOPC   NC3 4087  14.017   5.918   1.146
  342DOPC   PO4 4088  13.822   5.568   1.216
  342DOPC   GL1 4089  13.662   5.467   1.618
  342DOPC   GL2 4090  13.364   5.462   1.508
  342DOPC   C1A 4091  13.615   5.669   2.017
  342DOPC   D2A 4092  13.410   5.769   2.478
  342DOPC   C3A 4093  13.587   5.916   2.899
  342DOPC   C4A 4094  13.710   6.260   3.251
  342DOPC   C1B 4095  13.106   5.669   1.826
  342DOPC   D2B 4096  12.914   5.851   2.268
  342DOPC   C3B 4097  12.993   5.899   2.748
  342DOPC   C4B 4098  13.182   5.886   3.216
  343DOPC   NC3 4099  12.871   6.767   1.130
  343DOPC   PO4 4100  12.498   6.744   1.271
  343DOPC   GL1 4101  12.404   6.977   1.627
  343DOPC   GL2 4102  12.613   7.199   1.565
  343DOPC   C1A 4103  12.396   7.044   2.065
  343DOPC   D2A 4104  12.501   7.256   2.502
  343DOPC   C3A 4105  12.383   7.124   2.934
  343DOPC   C4A 4106  12.435   6.998   3.406
  343DOPC   C1B 4107  12.713   7.446   1.947
  343DOPC   D2B 4108  12.871   7.605   2.413
  343DOPC   C3B 4109  12.849   7.430   2.858
  343DOPC   C4B 4110  12.925   7.205   3.307
  344DOPC   NC3 4111  14.278   8.856   1.175
  344DOPC   PO4 4112  14.072   9.198   1.235
  344DOPC   GL1 4113  14.257   9.311   1.589
  344DOPC   GL2 4114  14.433   9.048   1.572
  344DOPC   C1A 4115  14.129   9.236   2.005
  344DOPC   D2A 4116  14.029   9.046   2.462
  344DOPC   C3A 4117  14.133   9.143   2.914
  344DOPC   C4A 4118  14.258   9.228   3.381
  344DOPC   C1B 4119  14.277   8.744   1.863
  344DOPC   D2B 4120  14.311   8.572   2.333
  344DOPC   C3B 4121  14.239   8.654   2.791
  344DOPC   C4B 4122  14.153   8.732   3.274
  345DOPC   NC3 4123   5.129   7.495   1.189
  345DOPC   PO4 4124   5.295   7.125   1.208
  345DOPC   GL1 4125   5.179   6.945   1.583
  345DOPC   GL2 4126   4.930   7.129   1.616
  345DOPC   C1A 4127   5.359   7.145   1.935
  345DOPC   D2A 4128   5.454   7.441   2.338
  345DOPC   C3A 4129   5.256   7.308   2.745
  345DOPC   C4A 4130   5.114   7.090   3.157
  345DOPC   C1B 4131   4.883   7.325   2.038
  345DOPC   D2B 4132   4.835   7.529   2.520
  345DOPC   C3B 4133   4.765   7.466   3.007
  345DOPC   C4B 4134   4.617   7.434   3.502
  346DOPC   NC3 4135  15.771   3.935   1.413
  346DOPC   PO4 4136  16.156   3.837   1.395
  346DOPC   GL1 4137  16.279   4.145   1.596
  346DOPC   GL2 4138  16.055   4.313   1.474
  346DOPC   C1A 4139  16.247   4.182   2.025
  346DOPC   D2A 4140  16.207   4.531   2.376
  346DOPC   C3A 4141  16.068   4.378   2.796
  346DOPC   C4A 4142  16.115   4.473   3.275
  346DOPC   C1B 4143  15.918   4.526   1.852
  346DOPC   D2B 4144  15.756   4.304   2.281
  346DOPC   C3B 4145  15.520   4.319   2.694
  346DOPC   C4B 4146  15.282   4.185   3.116
  347DOPC   NC3 4147   1.013   4.179   1.247
  347DOPC   PO4 4148   1.359   3.980   1.225
  347DOPC   GL1 4149   1.477   4.085   1.659
  347DOPC   GL2 4150   1.285   4.322   1.640
  347DOPC   C1A 4151   1.649   4.130   2.094
  347DOPC   D2A 4152   1.606   4.110   2.604
  347DOPC   C3A 4153   1.429   4.207   3.031
  347DOPC   C4A 4154   1.375   4.489   3.445
  347DOPC   C1B 4155   1.258   4.446   2.083
  347DOPC   D2B 4156   1.230   4.464   2.590
  347DOPC   C3B 4157   1.041   4.542   3.009
  347DOPC   C4B 4158   0.966   4.204   3.362
  348DOPC   NC3 4159  16.621   1.630   1.180
  348DOPC   PO4 4160  16.943   1.572   1.413
  348DOPC   GL1 4161  16.939   1.974   1.573
  348DOPC   GL2 4162  16.648   1.990   1.472
  348DOPC   C1A 4163  16.868   2.088   1.988
  348DOPC   D2A 4164  16.604   2.011   2.409
  348DOPC   C3A 4165  16.490   1.843   2.841
  348DOPC   C4A 4166  16.587   1.870   3.319
  348DOPC   C1B 4167  16.377   2.016   1.811
  348DOPC   D2B 4168  16.169   2.214   2.209
  348DOPC   C3B 4169  16.199   2.215   2.667
  348DOPC   C4B 4170  16.163   2.145   3.163
  349DOPC   NC3 4171   5.112   3.115   1.096
  349DOPC   PO4 4172   4.994   3.456   1.263
  349DOPC   GL1 4173   5.307   3.279   1.508
  349DOPC   GL2 4174   5.044   3.119   1.590
  349DOPC   C1A 4175   5.484   3.101   1.851
  349DOPC   D2A 4176   5.346   2.888   2.283
  349DOPC   C3A 4177   5.175   2.866   2.715
  349DOPC   C4A 4178   4.977   2.764   3.153
  349DOPC   C1B 4179   5.041   2.785   1.896
  349DOPC   D2B 4180   5.088   2.402   2.240
  349DOPC   C3B 4181   5.201   2.350   2.702
  349DOPC   C4B 4182   5.394   2.374   3.155
  350DOPC   NC3 4183  12.523   6.128   1.352
  350DOPC   PO4 4184  12.880   6.296   1.289
  350DOPC   GL1 4185  12.740   6.529   1.607
  350DOPC   GL2 4186  12.837   6.805   1.592
  350DOPC   C1A 4187  12.575   6.567   2.005
  350DOPC   D2A 4188  12.514   6.718   2.478
  350DOPC   C3A 4189  12.789   6.427   2.727
  350DOPC   C4A 4190  12.801   6.225   3.181
  350DOPC   C1B 4191  12.911   6.968   2.004
  350DOPC   D2B 4192  13.030   7.105   2.483
  350DOPC   C3B 4193  12.840   6.911   2.872
  350DOPC   C4B 4194  12.471   6.621   3.054
  351DOPC   NC3 4195  13.319   2.748   1.163
  351DOPC   PO4 4196  13.448   2.416   1.334
  351DOPC   GL1 4197  13.267   2.519   1.726
  351DOPC   GL2 4198  13.332   2.815   1.627
  351DOPC   C1A 4199  13.355   2.623   2.158
  351DOPC   D2A 4200  13.456   2.835   2.603
  351DOPC   C3A 4201  13.501   2.646   3.028
  351DOPC   C4A 4202  13.564   2.313   3.382
  351DOPC   C1B 4203  13.633   2.992   1.906
  351DOPC   D2B 4204  13.890   2.997   2.347
  351DOPC   C3B 4205  13.924   2.896   2.814
  351DOPC   C4B 4206  13.784   3.001   3.279
  352DOPC   NC3 4207  11.627   2.845   1.006
  352DOPC   PO4 4208  11.636   2.476   1.181
  352DOPC   GL1 4209  11.839   2.699   1.442
  352DOPC   GL2 4210  11.692   2.968   1.445
  352DOPC   C1A 4211  11.932   2.569   1.849
  352DOPC   D2A 4212  11.988   2.431   2.318
  352DOPC   C3A 4213  11.931   2.436   2.785
  352DOPC   C4A 4214  12.118   2.325   3.218
  352DOPC   C1B 4215  11.908   3.082   1.806
  352DOPC   D2B 4216  11.789   2.917   2.267
  352DOPC   C3B 4217  12.040   2.926   2.667
  352DOPC   C4B 4218  12.166   3.025   3.146
  353DOPC   NC3 4219  12.535   8.119   1.032
  353DOPC   PO4 4220  12.777   8.441   1.020
  353DOPC   GL1 4221  12.780   8.544   1.471
  353DOPC   GL2 4222  12.705   8.221   1.476
  353DOPC   C1A 4223  12.673   8.523   1.909
  353DOPC   D2A 4224  12.584   8.477   2.406
  353DOPC   C3A 4225  12.746   8.411   2.842
  353DOPC   C4A 4226  12.900   8.438   3.322
  353DOPC   C1B 4227  12.645   8.003   1.880
  353DOPC   D2B 4228  12.524   7.957   2.380
  353DOPC   C3B 4229  12.630   7.891   2.838
  353DOPC   C4B 4230  12.857   7.751   3.268
  354DOPC   NC3 4231   9.016   6.709   1.122
  354DOPC   PO4 4232   8.795   7.037   1.202
  354DOPC   GL1 4233   8.509   6.817   1.500
  354DOPC   GL2 4234   8.745   6.650   1.506
  354DOPC   C1A 4235   8.480   6.761   1.928
  354DOPC   D2A 4236   8.502   6.650   2.424
  354DOPC   C3A 4237   8.443   6.797   2.869
  354DOPC   C4A 4238   8.379   7.068   3.284
  354DOPC   C1B 4239   8.954   6.628   1.913
  354DOPC   D2B 4240   9.028   6.528   2.406
  354DOPC   C3B 4241   8.960   6.739   2.822
  354DOPC   C4B 4242   8.892   6.876   3.295
  355DOPC   NC3 4243   2.563   7.628   0.909
  355DOPC   PO4 4244   2.378   7.358   1.128
  355DOPC   GL1 4245   2.505   7.630   1.431
  355DOPC   GL2 4246   2.792   7.642   1.364
  355DOPC   C1A 4247   2.525   7.609   1.870
  355DOPC   D2A 4248   2.613   7.678   2.362
  355DOPC   C3A 4249   2.612   7.681   2.830
  355DOPC   C4A 4250   2.578   7.462   3.274
  355DOPC   C1B 4251   3.020   7.617   1.775
  355DOPC   D2B 4252   3.132   7.608   2.273
  355DOPC   C3B 4253   3.107   7.581   2.754
  355DOPC   C4B 4254   3.075   7.610   3.259
  356DOPC   NC3 4255   3.771   2.816   1.218
  356DOPC   PO4 4256   4.143   2.974   1.210
  356DOPC   GL1 4257   4.221   3.014   1.649
  356DOPC   GL2 4258   3.954   2.847   1.658
  356DOPC   C1A 4259   4.263   2.882   2.087
  356DOPC   D2A 4260   4.239   2.816   2.595
  356DOPC   C3A 4261   3.929   2.775   2.968
  356DOPC   C4A 4262   3.671   2.684   3.399
  356DOPC   C1B 4263   3.788   2.740   2.070
  356DOPC   D2B 4264   3.732   2.590   2.548
  356DOPC   C3B 4265   3.439   2.632   2.933
  356DOPC   C4B 4266   3.106   2.726   3.299
  357DOPC   NC3 4267   7.294   2.463   1.048
  357DOPC   PO4 4268   7.638   2.459   1.263
  357DOPC   GL1 4269   7.541   2.670   1.579
  357DOPC   GL2 4270   7.579   2.947   1.552
  357DOPC   C1A 4271   7.477   2.627   2.006
  357DOPC   D2A 4272   7.467   2.526   2.497
  357DOPC   C3A 4273   7.530   2.548   2.969
  357DOPC   C4A 4274   7.114   2.565   3.247
  357DOPC   C1B 4275   7.534   3.134   1.952
  357DOPC   D2B 4276   7.229   3.026   2.330
  357DOPC   C3B 4277   7.326   2.972   2.779
  357DOPC   C4B 4278   7.462   3.001   3.258
  358DOPC   NC3 4279   5.744   1.215   0.871
  358DOPC   PO4 4280   5.398   1.031   0.974
  358DOPC   GL1 4281   5.336   1.244   1.348
  358DOPC   GL2 4282   5.644   1.315   1.324
  358DOPC   C1A 4283   5.355   1.339   1.778
  358DOPC   D2A 4284   5.465   1.454   2.256
  358DOPC   C3A 4285   5.573   1.486   2.717
  358DOPC   C4A 4286   5.734   1.500   3.188
  358DOPC   C1B 4287   5.866   1.344   1.727
  358DOPC   D2B 4288   5.986   1.399   2.221
  358DOPC   C3B 4289   6.058   1.359   2.713
  358DOPC   C4B 4290   6.157   1.207   3.185
  359DOPC   NC3 4291   8.807   1.478   1.127
  359DOPC   PO4 4292   9.111   1.607   1.357
  359DOPC   GL1 4293   8.902   1.752   1.656
  359DOPC   GL2 4294   8.751   1.981   1.507
  359DOPC   C1A 4295   9.054   1.884   2.038
  359DOPC   D2A 4296   9.067   2.087   2.484
  359DOPC   C3A 4297   9.167   1.908   2.906
  359DOPC   C4A 4298   9.122   1.698   3.350
  359DOPC   C1B 4299   8.625   2.106   1.908
  359DOPC   D2B 4300   8.618   1.830   2.315
  359DOPC   C3B 4301   8.662   1.930   2.761
  359DOPC   C4B 4302   8.720   2.034   3.222
  360DOPC   NC3 4303  11.625   0.675   1.217
  360DOPC   PO4 4304  11.575   0.376   1.478
  360DOPC   GL1 4305  11.566   0.473   1.918
  360DOPC   GL2 4306  11.827   0.646   1.857
  360DOPC   C1A 4307  11.751   0.332   2.299
  360DOPC   D2A 4308  12.065   0.130   2.642
  360DOPC   C3A 4309  11.831   0.319   3.014
  360DOPC   C4A 4310  11.543   0.640   3.265
  360DOPC   C1B 4311  12.205   0.499   2.091
  360DOPC   D2B 4312  12.559   0.243   2.373
  360DOPC   C3B 4313  12.534   0.172   2.843
  360DOPC   C4B 4314  12.217   0.003   3.195
  361DOPC   NC3 4315   1.288   2.901   1.084
  361DOPC   PO4 4316   0.959   2.830   1.303
  361DOPC   GL1 4317   1.087   2.926   1.705
  361DOPC   GL2 4318   1.259   2.650   1.687
  361DOPC   C1A 4319   0.966   2.994   2.143
  361DOPC   D2A 4320   0.777   2.808   2.577
  361DOPC   C3A 4321   0.749   2.855   3.050
  361DOPC   C4A 4322   0.729   2.874   3.548
  361DOPC   C1B 4323   1.221   2.517   2.119
  361DOPC   D2B 4324   1.233   2.492   2.628
  361DOPC   C3B 4325   1.306   2.544   3.105
  361DOPC   C4B 4326   1.480   2.513   3.586
  362DOPC   NC3 4327  16.841   1.066   1.482
  362DOPC   PO4 4328  16.511   1.168   1.264
  362DOPC   GL1 4329  16.411   1.229   1.623
  362DOPC   GL2 4330  16.486   1.542   1.621
  362DOPC   C1A 4331  16.593   1.061   1.993
  362DOPC   D2A 4332  16.789   0.964   2.439
  362DOPC   C3A 4333  16.652   1.076   2.869
  362DOPC   C4A 4334  16.505   1.358   3.242
  362DOPC   C1B 4335  16.649   1.612   2.032
  362DOPC   D2B 4336  16.680   1.492   2.522
  362DOPC   C3B 4337  16.890   1.531   2.945
  362DOPC   C4B 4338  17.026   1.439   3.404
  363DOPC   NC3 4339   0.683   6.606   0.944
  363DOPC   PO4 4340   0.591   6.505   1.320
  363DOPC   GL1 4341   0.372   6.785   1.577
  363DOPC   GL2 4342   0.136   6.629   1.478
  363DOPC   C1A 4343   0.567   6.650   1.972
  363DOPC   D2A 4344   0.838   6.464   2.365
  363DOPC   C3A 4345   0.751   6.625   2.795
  363DOPC   C4A 4346   0.594   6.956   3.126
  363DOPC   C1B 4347   0.192   6.349   1.811
  363DOPC   D2B 4348   0.364   6.248   2.271
  363DOPC   C3B 4349   0.229   6.240   2.730
  363DOPC   C4B 4350  19.984   6.312   3.172
  364DOPC   NC3 4351  13.299   6.473   1.037
  364DOPC   PO4 4352  13.381   6.855   1.125
  364DOPC   GL1 4353  13.275   6.839   1.541
  364DOPC   GL2 4354  13.191   6.556   1.523
  364DOPC   C1A 4355  13.423   6.937   1.965
  364DOPC   D2A 4356  13.588   7.134   2.414
  364DOPC   C3A 4357  13.765   7.038   2.856
  364DOPC   C4A 4358  13.707   6.975   3.356
  364DOPC   C1B 4359  13.087   6.448   1.958
  364DOPC   D2B 4360  13.180   6.272   2.441
  364DOPC   C3B 4361  13.249   6.318   2.929
  364DOPC   C4B 4362  13.236   6.352   3.441
  365DOPC   NC3 4363   9.617   3.979   1.304
  365DOPC   PO4 4364   9.923   4.231   1.222
  365DOPC   GL1 4365   9.874   4.174   1.654
  365DOPC   GL2 4366   9.867   4.483   1.675
  365DOPC   C1A 4367   9.667   3.950   1.991
  365DOPC   D2A 4368   9.616   3.726   2.437
  365DOPC   C3A 4369   9.614   3.901   2.871
  365DOPC   C4A 4370   9.621   4.153   3.298
  365DOPC   C1B 4371   9.556   4.444   2.007
  365DOPC   D2B 4372   9.361   4.214   2.423
  365DOPC   C3B 4373   9.528   4.418   2.830
  365DOPC   C4B 4374   9.852   4.674   3.132
  366DOPC   NC3 4375  19.682   2.866   1.237
  366DOPC   PO4 4376  19.653   2.471   1.192
  366DOPC   GL1 4377  19.627   2.577   1.600
  366DOPC   GL2 4378  19.325   2.634   1.531
  366DOPC   C1A 4379  19.781   2.890   1.891
  366DOPC   D2A 4380  19.783   3.168   2.319
  366DOPC   C3A 4381  19.787   3.111   2.790
  366DOPC   C4A 4382  19.878   2.835   3.192
  366DOPC   C1B 4383  19.321   2.669   1.960
  366DOPC   D2B 4384  19.393   2.827   2.432
  366DOPC   C3B 4385  19.476   2.669   2.874
  366DOPC   C4B 4386  19.478   2.550   3.358
  367DOPC   NC3 4387   0.151   3.328   1.268
  367DOPC   PO4 4388   0.539   3.237   1.216
  367DOPC   GL1 4389   0.517   3.600   1.437
  367DOPC   GL2 4390   0.755   3.531   1.612
  367DOPC   C1A 4391   0.228   3.583   1.769
  367DOPC   D2A 4392   0.193   3.529   2.271
  367DOPC   C3A 4393   0.051   3.572   2.723
  367DOPC   C4A 4394   0.000   3.469   3.214
  367DOPC   C1B 4395   0.660   3.719   2.016
  367DOPC   D2B 4396   0.472   3.964   2.416
  367DOPC   C3B 4397   0.549   3.721   2.813
  367DOPC   C4B 4398   0.509   3.350   3.150
  368DOPC   NC3 4399   2.595   8.087   1.147
  368DOPC   PO4 4400   2.939   8.094   1.340
  368DOPC   GL1 4401   2.669   8.009   1.641
  368DOPC   GL2 4402   2.486   8.249   1.564
  368DOPC   C1A 4403   2.819   8.020   2.057
  368DOPC   D2A 4404   2.983   8.025   2.537
  368DOPC   C3A 4405   2.969   8.075   3.010
  368DOPC   C4A 4406   2.731   8.432   3.274
  368DOPC   C1B 4407   2.528   8.439   1.950
  368DOPC   D2B 4408   2.652   8.447   2.424
  368DOPC   C3B 4409   2.533   8.216   2.807
  368DOPC   C4B 4410   2.475   7.973   3.239
  369DOPC   NC3 4411  12.292   4.392   1.013
  369DOPC   PO4 4412  11.909   4.452   1.115
  369DOPC   GL1 4413  11.982   4.146   1.422
  369DOPC   GL2 4414  11.883   4.382   1.595
  369DOPC   C1A 4415  12.267   4.032   1.759
  369DOPC   D2A 4416  12.341   3.795   2.201
  369DOPC   C3A 4417  12.293   3.883   2.670
  369DOPC   C4A 4418  12.376   3.929   3.167
  369DOPC   C1B 4419  12.144   4.547   1.925
  369DOPC   D2B 4420  12.234   4.746   2.381
  369DOPC   C3B 4421  12.127   4.477   2.761
  369DOPC   C4B 4422  11.936   4.233   3.160
  370DOPC   NC3 4423  16.590   9.064   1.026
  370DOPC   PO4 4424  16.367   9.353   1.197
  370DOPC   GL1 4425  16.338   9.185   1.585
  370DOPC   GL2 4426  16.558   8.976   1.507
  370DOPC   C1A 4427  16.410   9.153   2.015
  370DOPC   D2A 4428  16.653   8.955   2.400
  370DOPC   C3A 4429  16.504   9.031   2.829
  370DOPC   C4A 4430  16.330   9.138   3.266
  370DOPC   C1B 4431  16.759   8.766   1.860
  370DOPC   D2B 4432  16.832   8.479   2.275
  370DOPC   C3B 4433  16.757   8.581   2.747
  370DOPC   C4B 4434  16.703   8.741   3.229
  371DOPC   NC3 4435  17.259   8.360   1.161
  371DOPC   PO4 4436  17.651   8.379   1.144
  371DOPC   GL1 4437  17.900   8.546   1.447
  371DOPC   GL2 4438  17.685   8.785   1.417
  371DOPC   C1A 4439  17.808   8.576   1.877
  371DOPC   D2A 4440  17.623   8.790   2.305
  371DOPC   C3A 4441  17.650   8.768   2.771
  371DOPC   C4A 4442  17.674   8.672   3.252
  371DOPC   C1B 4443  17.439   8.907   1.788
  371DOPC   D2B 4444  17.134   8.916   2.197
  371DOPC   C3B 4445  17.206   9.014   2.657
  371DOPC   C4B 4446  17.370   9.078   3.128
  372DOPC   NC3 4447   8.008   6.034   1.200
  372DOPC   PO4 4448   7.759   6.307   1.362
  372DOPC   GL1 4449   7.840   6.221   1.774
  372DOPC   GL2 4450   8.119   6.136   1.672
  372DOPC   C1A 4451   7.770   5.998   2.152
  372DOPC   D2A 4452   7.778   5.723   2.580
  372DOPC   C3A 4453   7.768   5.826   3.043
  372DOPC   C4A 4454   7.681   6.070   3.461
  372DOPC   C1B 4455   8.253   5.874   1.992
  372DOPC   D2B 4456   8.245   5.589   2.401
  372DOPC   C3B 4457   8.220   5.724   2.851
  372DOPC   C4B 4458   8.201   5.932   3.308
  373DOPC   NC3 4459  12.361   5.184   1.342
  373DOPC   PO4 4460  12.020   5.349   1.438
  373DOPC   GL1 4461  12.236   5.294   1.811
  373DOPC   GL2 4462  12.166   5.004   1.743
  373DOPC   C1A 4463  12.248   5.257   2.262
  373DOPC   D2A 4464  12.168   5.095   2.734
  373DOPC   C3A 4465  12.199   5.101   3.204
  373DOPC   C4A 4466  12.114   5.223   3.684
  373DOPC   C1B 4467  11.882   4.973   2.070
  373DOPC   D2B 4468  11.706   4.934   2.539
  373DOPC   C3B 4469  11.809   4.809   2.994
  373DOPC   C4B 4470  11.952   4.694   3.457
  374DOPC   NC3 4471   6.553   7.439   1.025
  374DOPC   PO4 4472   6.172   7.554   1.133
  374DOPC   GL1 4473   6.336   7.569   1.505
  374DOPC   GL2 4474   6.564   7.399   1.495
  374DOPC   C1A 4475   6.288   7.520   1.928
  374DOPC   D2A 4476   6.368   7.403   2.398
  374DOPC   C3A 4477   6.188   7.411   2.826
  374DOPC   C4A 4478   6.058   7.381   3.303
  374DOPC   C1B 4479   6.733   7.279   1.895
  374DOPC   D2B 4480   6.785   7.055   2.336
  374DOPC   C3B 4481   6.694   7.222   2.752
  374DOPC   C4B 4482   6.572   7.388   3.183
  375DOPC   NC3 4483   2.780   9.683   1.145
  375DOPC   PO4 4484   2.471   9.503   1.343
  375DOPC   GL1 4485   2.546   9.390   1.736
  375DOPC   GL2 4486   2.827   9.258   1.682
  375DOPC   C1A 4487   2.453   9.638   2.112
  375DOPC   D2A 4488   2.339   9.682   2.609
  375DOPC   C3A 4489   2.289   9.879   3.044
  375DOPC   C4A 4490   2.366   0.096   3.487
  375DOPC   C1B 4491   2.922   9.401   2.095
  375DOPC   D2B 4492   2.826   9.773   2.434
  375DOPC   C3B 4493   2.763   9.763   2.904
  375DOPC   C4B 4494   2.621   9.648   3.369
  376DOPC   NC3 4495  15.913   1.966   0.971
  376DOPC   PO4 4496  16.142   1.764   1.234
  376DOPC   GL1 4497  15.786   1.808   1.513
  376DOPC   GL2 4498  15.816   2.105   1.429
  376DOPC   C1A 4499  15.906   1.793   1.956
  376DOPC   D2A 4500  16.156   1.727   2.403
  376DOPC   C3A 4501  15.907   1.835   2.801
  376DOPC   C4A 4502  15.669   1.968   3.226
  376DOPC   C1B 4503  15.804   2.276   1.842
  376DOPC   D2B 4504  15.718   2.382   2.336
  376DOPC   C3B 4505  15.729   2.344   2.801
  376DOPC   C4B 4506  15.741   2.511   3.250
  377DOPC   NC3 4507  15.624   0.542   1.322
  377DOPC   PO4 4508  15.713   0.930   1.260
  377DOPC   GL1 4509  16.043   0.966   1.554
  377DOPC   GL2 4510  16.012   0.635   1.574
  377DOPC   C1A 4511  16.099   0.901   1.988
  377DOPC   D2A 4512  16.218   0.658   2.410
  377DOPC   C3A 4513  16.192   0.831   2.839
  377DOPC   C4A 4514  16.132   0.993   3.299
  377DOPC   C1B 4515  16.187   0.381   1.931
  377DOPC   D2B 4516  16.326   0.146   2.359
  377DOPC   C3B 4517  16.229   0.268   2.809
  377DOPC   C4B 4518  16.003   0.450   3.214
  378DOPC   NC3 4519  14.898   0.313   1.234
  378DOPC   PO4 4520  15.254   0.211   1.384
  378DOPC   GL1 4521  15.306   0.154   1.806
  378DOPC   GL2 4522  15.011   0.071   1.865
  378DOPC   C1A 4523  15.521   0.065   2.199
  378DOPC   D2A 4524  15.591   9.968   2.691
  378DOPC   C3A 4525  15.448   0.031   3.143
  378DOPC   C4A 4526  15.337   0.093   3.632
  378DOPC   C1B 4527  15.013   9.917   2.305
  378DOPC   D2B 4528  14.991   9.938   2.826
  378DOPC   C3B 4529  14.937   0.147   3.266
  378DOPC   C4B 4530  14.935   0.439   3.682
  379DOPC   NC3 4531  10.493   3.603   0.910
  379DOPC   PO4 4532  10.767   3.729   1.172
  379DOPC   GL1 4533  10.632   3.924   1.515
  379DOPC   GL2 4534  10.370   3.750   1.488
  379DOPC   C1A 4535  10.730   3.785   1.919
  379DOPC   D2A 4536  10.674   3.613   2.380
  379DOPC   C3A 4537  10.615   3.684   2.844
  379DOPC   C4A 4538  10.485   3.859   3.300
  379DOPC   C1B 4539  10.373   3.447   1.834
  379DOPC   D2B 4540  10.358   3.201   2.273
  379DOPC   C3B 4541  10.350   3.242   2.739
  379DOPC   C4B 4542  10.323   3.405   3.201
  380DOPC   NC3 4543  12.570   2.423   1.130
  380DOPC   PO4 4544  12.412   2.068   1.210
  380DOPC   GL1 4545  12.530   1.836   1.558
  380DOPC   GL2 4546  12.817   1.870   1.473
  380DOPC   C1A 4547  12.585   1.929   1.983
  380DOPC   D2A 4548  12.701   1.911   2.470
  380DOPC   C3A 4549  12.731   2.058   2.915
  380DOPC   C4A 4550  12.645   2.293   3.333
  380DOPC   C1B 4551  13.045   1.810   1.864
  380DOPC   D2B 4552  13.191   1.864   2.344
  380DOPC   C3B 4553  13.129   1.698   2.791
  380DOPC   C4B 4554  13.259   1.566   3.260
  381DOPC   NC3 4555  16.487   8.143   1.377
  381DOPC   PO4 4556  16.792   8.212   1.124
  381DOPC   GL1 4557  17.034   8.149   1.505
  381DOPC   GL2 4558  16.826   8.370   1.600
  381DOPC   C1A 4559  17.035   8.073   1.934
  381DOPC   D2A 4560  16.810   7.887   2.340
  381DOPC   C3A 4561  16.874   8.080   2.762
  381DOPC   C4A 4562  16.819   8.242   3.231
  381DOPC   C1B 4563  16.549   8.210   1.938
  381DOPC   D2B 4564  16.415   8.228   2.435
  381DOPC   C3B 4565  16.364   8.008   2.851
  381DOPC   C4B 4566  16.129   7.909   3.276
  382DOPC   NC3 4567  14.177   5.210   1.037
  382DOPC   PO4 4568  14.460   4.986   1.221
  382DOPC   GL1 4569  14.265   5.018   1.579
  382DOPC   GL2 4570  14.049   5.223   1.501
  382DOPC   C1A 4571  14.281   4.859   1.995
  382DOPC   D2A 4572  14.295   4.646   2.454
  382DOPC   C3A 4573  14.519   4.677   2.875
  382DOPC   C4A 4574  14.687   4.800   3.327
  382DOPC   C1B 4575  13.987   5.286   1.938
  382DOPC   D2B 4576  14.140   5.168   2.407
  382DOPC   C3B 4577  14.042   5.212   2.870
  382DOPC   C4B 4578  13.948   5.334   3.348
  383DOPC   NC3 4579   9.964   4.754   1.219
  383DOPC   PO4 4580  10.139   5.120   1.186
  383DOPC   GL1 4581  10.045   5.135   1.615
  383DOPC   GL2 4582   9.869   5.368   1.591
  383DOPC   C1A 4583  10.040   4.976   2.057
  383DOPC   D2A 4584  10.142   4.805   2.523
  383DOPC   C3A 4585  10.176   5.050   2.917
  383DOPC   C4A 4586   9.979   5.234   3.323
  383DOPC   C1B 4587   9.913   5.465   2.024
  383DOPC   D2B 4588  10.067   5.338   2.490
  383DOPC   C3B 4589   9.741   5.294   2.840
  383DOPC   C4B 4590   9.468   5.065   3.191
  384DOPC   NC3 4591  15.943   7.317   1.169
  384DOPC   PO4 4592  15.791   7.674   1.273
  384DOPC   GL1 4593  16.020   7.661   1.706
  384DOPC   GL2 4594  15.878   7.416   1.635
  384DOPC   C1A 4595  15.981   7.723   2.165
  384DOPC   D2A 4596  15.914   7.731   2.681
  384DOPC   C3A 4597  15.787   7.573   3.118
  384DOPC   C4A 4598  15.736   7.447   3.605
  384DOPC   C1B 4599  15.596   7.453   1.960
  384DOPC   D2B 4600  15.435   7.630   2.396
  384DOPC   C3B 4601  15.407   7.454   2.821
  384DOPC   C4B 4602  15.378   7.273   3.288
  385DOPC   NC3 4603   9.148   1.080   1.369
  385DOPC   PO4 4604   9.494   1.256   1.299
  385DOPC   GL1 4605   9.278   1.351   1.717
  385DOPC   GL2 4606   9.449   1.096   1.756
  385DOPC   C1A 4607   9.375   1.487   2.111
  385DOPC   D2A 4608   9.571   1.443   2.561
  385DOPC   C3A 4609   9.542   1.504   3.023
  385DOPC   C4A 4610   9.616   1.504   3.505
  385DOPC   C1B 4611   9.658   1.065   2.152
  385DOPC   D2B 4612   9.727   0.943   2.641
  385DOPC   C3B 4613   9.781   1.062   3.108
  385DOPC   C4B 4614   9.923   1.113   3.587
  386DOPC   NC3 4615  14.955   8.227   1.268
  386DOPC   PO4 4616  14.628   8.469   1.253
  386DOPC   GL1 4617  14.694   8.668   1.629
  386DOPC   GL2 4618  14.987   8.622   1.558
  386DOPC   C1A 4619  14.701   8.459   2.016
  386DOPC   D2A 4620  14.629   8.138   2.400
  386DOPC   C3A 4621  14.625   8.304   2.835
  386DOPC   C4A 4622  14.630   8.494   3.288
  386DOPC   C1B 4623  15.135   8.282   1.806
  386DOPC   D2B 4624  15.140   8.099   2.270
  386DOPC   C3B 4625  15.118   8.129   2.741
  386DOPC   C4B 4626  15.087   8.166   3.239
  387DOPC   NC3 4627  15.023   7.356   1.026
  387DOPC   PO4 4628  15.282   7.602   1.203
  387DOPC   GL1 4629  15.085   7.549   1.573
  387DOPC   GL2 4630  15.136   7.242   1.554
  387DOPC   C1A 4631  15.117   7.670   2.001
  387DOPC   D2A 4632  14.909   7.692   2.480
  387DOPC   C3A 4633  14.964   7.677   2.961
  387DOPC   C4A 4634  14.970   7.636   3.461
  387DOPC   C1B 4635  15.181   7.167   1.993
  387DOPC   D2B 4636  15.091   7.210   2.487
  387DOPC   C3B 4637  15.021   7.134   2.949
  387DOPC   C4B 4638  14.887   7.057   3.402
  388DOPC   NC3 4639  13.616   5.122   1.294
  388DOPC   PO4 4640  13.520   4.775   1.118
  388DOPC   GL1 4641  13.615   4.739   1.582
  388DOPC   GL2 4642  13.361   4.904   1.622
  388DOPC   C1A 4643  13.714   4.862   2.032
  388DOPC   D2A 4644  13.753   4.851   2.548
  388DOPC   C3A 4645  13.640   4.900   3.017
  388DOPC   C4A 4646  13.659   4.944   3.512
  388DOPC   C1B 4647  13.375   5.219   1.943
  388DOPC   D2B 4648  13.621   5.315   2.382
  388DOPC   C3B 4649  13.443   5.334   2.829
  388DOPC   C4B 4650  13.268   5.167   3.277
  389DOPC   NC3 4651  19.489   1.176   1.191
  389DOPC   PO4 4652  19.878   1.247   1.252
  389DOPC   GL1 4653  19.699   1.075   1.613
  389DOPC   GL2 4654  19.476   1.292   1.634
  389DOPC   C1A 4655  19.876   0.946   2.007
  389DOPC   D2A 4656  19.972   0.744   2.459
  389DOPC   C3A 4657  19.820   0.868   2.903
  389DOPC   C4A 4658  19.631   1.114   3.304
  389DOPC   C1B 4659  19.629   1.403   2.024
  389DOPC   D2B 4660  19.852   1.253   2.449
  389DOPC   C3B 4661  19.624   1.373   2.837
  389DOPC   C4B 4662  19.238   1.449   3.141
  390DOPC   NC3 4663  13.295   4.354   1.275
  390DOPC   PO4 4664  13.048   4.036   1.279
  390DOPC   GL1 4665  13.146   4.128   1.705
  390DOPC   GL2 4666  13.023   4.421   1.646
  390DOPC   C1A 4667  13.061   4.252   2.128
  390DOPC   D2A 4668  12.878   4.551   2.474
  390DOPC   C3A 4669  13.031   4.496   2.912
  390DOPC   C4A 4670  13.291   4.610   3.317
  390DOPC   C1B 4671  12.650   4.425   1.899
  390DOPC   D2B 4672  12.433   4.293   2.344
  390DOPC   C3B 4673  12.596   4.262   2.804
  390DOPC   C4B 4674  12.824   4.190   3.259
  391DOPC   NC3 4675   3.687   5.677   1.180
  391DOPC   PO4 4676   3.787   6.037   1.347
  391DOPC   GL1 4677   3.889   5.841   1.746
  391DOPC   GL2 4678   3.766   5.584   1.637
  391DOPC   C1A 4679   3.810   5.844   2.196
  391DOPC   D2A 4680   3.559   5.921   2.634
  391DOPC   C3A 4681   3.567   6.015   3.105
  391DOPC   C4A 4682   3.688   6.022   3.604
  391DOPC   C1B 4683   3.483   5.483   1.974
  391DOPC   D2B 4684   3.424   5.415   2.481
  391DOPC   C3B 4685   3.450   5.525   2.945
  391DOPC   C4B 4686   3.433   5.629   3.424
  392DOPC   NC3 4687   6.396   7.976   1.255
  392DOPC   PO4 4688   6.748   7.802   1.355
  392DOPC   GL1 4689   6.672   7.732   1.784
  392DOPC   GL2 4690   6.449   7.945   1.741
  392DOPC   C1A 4691   6.738   7.702   2.237
  392DOPC   D2A 4692   6.608   7.720   2.744
  392DOPC   C3A 4693   6.340   7.832   3.127
  392DOPC   C4A 4694   6.240   8.022   3.576
  392DOPC   C1B 4695   6.668   8.197   2.031
  392DOPC   D2B 4696   6.722   8.168   2.535
  392DOPC   C3B 4697   6.651   8.250   3.001
  392DOPC   C4B 4698   6.552   8.420   3.461
  393DOPC   NC3 4699  11.724   5.190   1.080
  393DOPC   PO4 4700  11.561   5.522   1.247
  393DOPC   GL1 4701  11.548   5.581   1.676
  393DOPC   GL2 4702  11.655   5.299   1.736
  393DOPC   C1A 4703  11.320   5.645   2.058
  393DOPC   D2A 4704  11.333   5.471   2.537
  393DOPC   C3A 4705  11.525   5.237   2.907
  393DOPC   C4A 4706  11.696   5.181   3.368
  393DOPC   C1B 4707  11.407   5.153   2.093
  393DOPC   D2B 4708  11.065   5.016   2.439
  393DOPC   C3B 4709  11.037   5.110   2.900
  393DOPC   C4B 4710  11.151   5.164   3.377
  394DOPC   NC3 4711  18.129   8.240   1.092
  394DOPC   PO4 4712  18.005   7.998   1.385
  394DOPC   GL1 4713  18.216   8.070   1.751
  394DOPC   GL2 4714  18.361   7.807   1.813
  394DOPC   C1A 4715  18.037   8.213   2.131
  394DOPC   D2A 4716  17.723   8.330   2.509
  394DOPC   C3A 4717  17.848   8.278   2.963
  394DOPC   C4A 4718  18.064   8.368   3.410
  394DOPC   C1B 4719  18.299   7.799   2.285
  394DOPC   D2B 4720  18.244   8.181   2.605
  394DOPC   C3B 4721  18.321   8.079   3.048
  394DOPC   C4B 4722  18.363   7.908   3.503
  395DOPC   NC3 4723   1.651   4.383   1.320
  395DOPC   PO4 4724   1.846   4.028   1.361
  395DOPC   GL1 4725   2.210   4.204   1.495
  395DOPC   GL2 4726   2.114   4.473   1.396
  395DOPC   C1A 4727   2.145   4.229   1.937
  395DOPC   D2A 4728   2.061   4.214   2.422
  395DOPC   C3A 4729   2.048   4.186   2.889
  395DOPC   C4A 4730   1.833   4.317   3.301
  395DOPC   C1B 4731   2.267   4.686   1.742
  395DOPC   D2B 4732   2.306   4.667   2.234
  395DOPC   C3B 4733   2.188   4.651   2.682
  395DOPC   C4B 4734   2.218   4.627   3.172
  396DOPC   NC3 4735   9.712   2.970   1.088
  396DOPC   PO4 4736   9.333   2.985   1.210
  396DOPC   GL1 4737   9.283   3.189   1.594
  396DOPC   GL2 4738   9.579   3.217   1.640
  396DOPC   C1A 4739   9.138   2.998   1.982
  396DOPC   D2A 4740   9.040   2.862   2.460
  396DOPC   C3A 4741   9.211   2.938   2.896
  396DOPC   C4A 4742   9.378   3.126   3.323
  396DOPC   C1B 4743   9.634   3.057   2.069
  396DOPC   D2B 4744   9.590   2.871   2.546
  396DOPC   C3B 4745   9.751   2.940   2.992
  396DOPC   C4B 4746   9.873   2.825   3.462
  397DOPC   NC3 4747  12.941   9.663   1.285
  397DOPC   PO4 4748  12.931   9.293   1.436
  397DOPC   GL1 4749  12.752   9.361   1.761
  397DOPC   GL2 4750  12.710   9.662   1.721
  397DOPC   C1A 4751  13.011   9.387   2.091
  397DOPC   D2A 4752  13.200   9.440   2.527
  397DOPC   C3A 4753  12.828   9.349   2.798
  397DOPC   C4A 4754  12.484   9.239   3.137
  397DOPC   C1B 4755  12.771   9.825   2.143
  397DOPC   D2B 4756  12.872   9.828   2.638
  397DOPC   C3B 4757  12.733   9.773   3.105
  397DOPC   C4B 4758  12.561   9.915   3.562
  398DOPC   NC3 4759   3.655   8.834   1.205
  398DOPC   PO4 4760   3.980   8.838   1.421
  398DOPC   GL1 4761   3.739   8.875   1.751
  398DOPC   GL2 4762   3.459   8.903   1.621
  398DOPC   C1A 4763   3.734   8.955   2.190
  398DOPC   D2A 4764   3.746   9.037   2.678
  398DOPC   C3A 4765   3.684   8.764   3.050
  398DOPC   C4A 4766   3.607   8.491   3.468
  398DOPC   C1B 4767   3.213   8.961   1.980
  398DOPC   D2B 4768   3.023   9.002   2.448
  398DOPC   C3B 4769   3.240   8.991   2.879
  398DOPC   C4B 4770   3.376   8.992   3.366
  399DOPC   NC3 4771   7.317   1.659   0.911
  399DOPC   PO4 4772   7.406   1.975   1.139
  399DOPC   GL1 4773   7.639   2.031   1.477
  399DOPC   GL2 4774   7.415   2.227   1.596
  399DOPC   C1A 4775   7.513   1.761   1.781
  399DOPC   D2A 4776   7.379   1.723   2.250
  399DOPC   C3A 4777   7.449   1.725   2.711
  399DOPC   C4A 4778   7.435   1.695   3.201
  399DOPC   C1B 4779   7.278   2.164   2.023
  399DOPC   D2B 4780   7.133   2.115   2.505
  399DOPC   C3B 4781   7.250   2.127   2.964
  399DOPC   C4B 4782   7.361   2.135   3.455
  400DOPC   NC3 4783   8.128   2.549   1.123
  400DOPC   PO4 4784   8.002   2.846   1.367
  400DOPC   GL1 4785   7.941   2.948   1.815
  400DOPC   GL2 4786   7.924   2.652   1.790
  400DOPC   C1A 4787   7.875   2.833   2.244
  400DOPC   D2A 4788   7.957   2.514   2.616
  400DOPC   C3A 4789   7.971   2.843   2.945
  400DOPC   C4A 4790   7.988   3.112   3.351
  400DOPC   C1B 4791   8.197   2.477   2.073
  400DOPC   D2B 4792   8.383   2.255   2.476
  400DOPC   C3B 4793   8.296   2.296   2.943
  400DOPC   C4B 4794   7.964   2.461   3.277
  401DOPC   NC3 4795  12.034   8.342   1.116
  401DOPC   PO4 4796  12.334   8.484   1.330
  401DOPC   GL1 4797  12.286   8.263   1.657
  401DOPC   GL2 4798  11.988   8.211   1.613
  401DOPC   C1A 4799  12.246   8.243   2.079
  401DOPC   D2A 4800  12.028   7.949   2.424
  401DOPC   C3A 4801  12.191   8.201   2.774
  401DOPC   C4A 4802  12.099   8.277   3.245
  401DOPC   C1B 4803  11.776   8.087   1.994
  401DOPC   D2B 4804  11.536   8.059   2.451
  401DOPC   C3B 4805  11.744   7.918   2.865
  401DOPC   C4B 4806  11.871   7.828   3.344
  402DOPC   NC3 4807   4.306   6.127   1.238
  402DOPC   PO4 4808   4.198   5.735   1.261
  402DOPC   GL1 4809   4.302   5.912   1.644
  402DOPC   GL2 4810   4.581   5.932   1.574
  402DOPC   C1A 4811   4.202   6.128   2.012
  402DOPC   D2A 4812   4.141   6.293   2.483
  402DOPC   C3A 4813   4.029   6.005   2.854
  402DOPC   C4A 4814   3.950   5.720   3.262
  402DOPC   C1B 4815   4.688   5.941   1.986
  402DOPC   D2B 4816   4.670   6.205   2.408
  402DOPC   C3B 4817   4.508   6.179   2.842
  402DOPC   C4B 4818   4.327   6.105   3.292
  403DOPC   NC3 4819  14.861   1.794   1.243
  403DOPC   PO4 4820  14.973   2.165   1.341
  403DOPC   GL1 4821  15.173   1.936   1.578
  403DOPC   GL2 4822  15.419   2.087   1.634
  403DOPC   C1A 4823  14.938   1.855   1.934
  403DOPC   D2A 4824  14.863   2.045   2.382
  403DOPC   C3A 4825  14.812   1.951   2.835
  403DOPC   C4A 4826  14.664   1.786   3.280
  403DOPC   C1B 4827  15.385   2.106   2.083
  403DOPC   D2B 4828  15.329   2.097   2.595
  403DOPC   C3B 4829  15.260   2.225   3.053
  403DOPC   C4B 4830  15.350   2.348   3.535
  404DOPC   NC3 4831   6.791   3.494   1.222
  404DOPC   PO4 4832   7.028   3.714   1.459
  404DOPC   GL1 4833   6.704   3.683   1.701
  404DOPC   GL2 4834   6.459   3.636   1.519
  404DOPC   C1A 4835   6.680   3.479   2.114
  404DOPC   D2A 4836   6.669   3.102   2.462
  404DOPC   C3A 4837   6.586   3.278   2.893
  404DOPC   C4A 4838   6.738   3.577   3.257
  404DOPC   C1B 4839   6.244   3.665   1.901
  404DOPC   D2B 4840   6.265   3.797   2.388
  404DOPC   C3B 4841   6.270   3.714   2.855
  404DOPC   C4B 4842   6.241   3.534   3.319
  405DOPC   NC3 4843   5.124   5.384   1.207
  405DOPC   PO4 4844   4.903   5.099   1.380
  405DOPC   GL1 4845   4.862   5.400   1.706
  405DOPC   GL2 4846   5.184   5.378   1.680
  405DOPC   C1A 4847   4.749   5.384   2.154
  405DOPC   D2A 4848   4.776   5.317   2.674
  405DOPC   C3A 4849   4.703   5.197   3.140
  405DOPC   C4A 4850   5.000   5.139   3.549
  405DOPC   C1B 4851   5.227   5.169   2.079
  405DOPC   D2B 4852   5.184   4.919   2.527
  405DOPC   C3B 4853   5.171   5.065   2.976
  405DOPC   C4B 4854   5.109   5.503   3.181
  406DOPC   NC3 4855   7.168   0.290   1.251
  406DOPC   PO4 4856   7.400   0.618   1.219
  406DOPC   GL1 4857   7.272   0.700   1.636
  406DOPC   GL2 4858   7.325   0.388   1.703
  406DOPC   C1A 4859   7.040   0.957   1.945
  406DOPC   D2A 4860   6.829   1.130   2.383
  406DOPC   C3A 4861   6.999   0.951   2.787
  406DOPC   C4A 4862   7.171   0.602   3.100
  406DOPC   C1B 4863   7.342   0.320   2.167
  406DOPC   D2B 4864   7.276   0.259   2.673
  406DOPC   C3B 4865   7.406   0.148   3.119
  406DOPC   C4B 4866   7.434   0.019   3.598
  407DOPC   NC3 4867  17.689   7.603   1.280
  407DOPC   PO4 4868  17.461   7.932   1.358
  407DOPC   GL1 4869  17.647   8.207   1.608
  407DOPC   GL2 4870  17.433   8.417   1.607
  407DOPC   C1A 4871  17.565   8.042   2.004
  407DOPC   D2A 4872  17.295   8.036   2.412
  407DOPC   C3A 4873  17.379   8.102   2.857
  407DOPC   C4A 4874  17.436   8.172   3.335
  407DOPC   C1B 4875  17.321   8.472   2.053
  407DOPC   D2B 4876  17.242   8.521   2.559
  407DOPC   C3B 4877  17.206   8.565   3.033
  407DOPC   C4B 4878  17.117   8.535   3.528
  408DOPC   NC3 4879   4.983   1.866   1.089
  408DOPC   PO4 4880   4.954   1.484   1.197
  408DOPC   GL1 4881   4.918   1.532   1.637
  408DOPC   GL2 4882   4.842   1.818   1.549
  408DOPC   C1A 4883   5.070   1.701   2.022
  408DOPC   D2A 4884   5.102   1.886   2.484
  408DOPC   C3A 4885   5.132   1.834   2.949
  408DOPC   C4A 4886   5.009   1.721   3.415
  408DOPC   C1B 4887   4.700   2.040   1.897
  408DOPC   D2B 4888   4.610   2.070   2.386
  408DOPC   C3B 4889   4.743   2.156   2.824
  408DOPC   C4B 4890   4.911   2.233   3.284
  409DOPC   NC3 4891   3.275   4.815   1.209
  409DOPC   PO4 4892   3.638   4.922   1.331
  409DOPC   GL1 4893   3.553   5.039   1.761
  409DOPC   GL2 4894   3.843   5.150   1.753
  409DOPC   C1A 4895   3.507   5.002   2.212
  409DOPC   D2A 4896   3.556   4.956   2.726
  409DOPC   C3A 4897   3.539   4.786   3.182
  409DOPC   C4A 4898   3.513   4.812   3.697
  409DOPC   C1B 4899   3.911   5.321   2.158
  409DOPC   D2B 4900   3.920   5.539   2.605
  409DOPC   C3B 4901   3.886   5.280   2.983
  409DOPC   C4B 4902   3.717   5.203   3.424
  410DOPC   NC3 4903  16.977   0.362   0.961
  410DOPC   PO4 4904  16.925   0.630   1.258
  410DOPC   GL1 4905  17.138   0.564   1.618
  410DOPC   GL2 4906  17.256   0.847   1.633
  410DOPC   C1A 4907  17.123   0.390   2.035
  410DOPC   D2A 4908  17.207   0.222   2.517
  410DOPC   C3A 4909  17.292   0.261   2.997
  410DOPC   C4A 4910  17.255   0.351   3.496
  410DOPC   C1B 4911  17.428   0.895   2.059
  410DOPC   D2B 4912  17.702   0.825   2.493
  410DOPC   C3B 4913  17.646   0.763   2.964
  410DOPC   C4B 4914  17.508   0.798   3.440
  411DOPC   NC3 4915  19.052   8.773   1.075
  411DOPC   PO4 4916  19.114   8.435   1.281
  411DOPC   GL1 4917  18.760   8.502   1.479
  411DOPC   GL2 4918  18.760   8.810   1.473
  411DOPC   C1A 4919  18.793   8.537   1.910
  411DOPC   D2A 4920  18.641   8.613   2.396
  411DOPC   C3A 4921  18.613   8.496   2.852
  411DOPC   C4A 4922  18.582   8.423   3.337
  411DOPC   C1B 4923  18.634   9.002   1.875
  411DOPC   D2B 4924  18.423   9.086   2.335
  411DOPC   C3B 4925  18.548   9.004   2.790
  411DOPC   C4B 4926  18.754   8.895   3.235
  412DOPC   NC3 4927  16.485   4.155   1.176
  412DOPC   PO4 4928  16.851   4.196   1.338
  412DOPC   GL1 4929  16.707   4.219   1.765
  412DOPC   GL2 4930  16.628   3.925   1.743
  412DOPC   C1A 4931  16.692   4.332   2.210
  412DOPC   D2A 4932  16.590   4.387   2.709
  412DOPC   C3A 4933  16.746   4.374   3.161
  412DOPC   C4A 4934  16.889   4.276   3.635
  412DOPC   C1B 4935  16.476   3.729   2.107
  412DOPC   D2B 4936  16.213   3.854   2.518
  412DOPC   C3B 4937  16.377   3.970   2.954
  412DOPC   C4B 4938  16.473   4.062   3.439
  413DOPC   NC3 4939   6.643   1.071   1.029
  413DOPC   PO4 4940   6.400   0.894   1.292
  413DOPC   GL1 4941   6.672   1.095   1.529
  413DOPC   GL2 4942   6.644   1.371   1.384
  413DOPC   C1A 4943   6.538   1.095   1.948
  413DOPC   D2A 4944   6.315   1.055   2.393
  413DOPC   C3A 4945   6.476   1.047   2.825
  413DOPC   C4A 4946   6.746   1.051   3.220
  413DOPC   C1B 4947   6.597   1.580   1.748
  413DOPC   D2B 4948   6.505   1.535   2.240
  413DOPC   C3B 4949   6.526   1.532   2.703
  413DOPC   C4B 4950   6.548   1.543   3.193
  414DOPC   NC3 4951   7.992   7.892   1.306
  414DOPC   PO4 4952   8.152   8.231   1.156
  414DOPC   GL1 4953   8.245   8.433   1.534
  414DOPC   GL2 4954   7.978   8.268   1.607
  414DOPC   C1A 4955   8.394   8.331   1.941
  414DOPC   D2A 4956   8.509   8.225   2.424
  414DOPC   C3A 4957   8.444   8.426   2.855
  414DOPC   C4A 4958   8.314   8.603   3.308
  414DOPC   C1B 4959   8.032   7.957   1.928
  414DOPC   D2B 4960   8.134   7.869   2.423
  414DOPC   C3B 4961   8.131   8.003   2.884
  414DOPC   C4B 4962   8.022   8.159   3.351
  415DOPC   NC3 4963   4.283   0.410   1.211
  415DOPC   PO4 4964   4.553   0.687   1.327
  415DOPC   GL1 4965   4.576   0.476   1.701
  415DOPC   GL2 4966   4.456   0.216   1.616
  415DOPC   C1A 4967   4.309   0.528   2.063
  415DOPC   D2A 4968   4.181   0.751   2.501
  415DOPC   C3A 4969   4.384   0.672   2.919
  415DOPC   C4A 4970   4.784   0.754   3.202
  415DOPC   C1B 4971   4.351   9.996   2.011
  415DOPC   D2B 4972   4.318   9.877   2.510
  415DOPC   C3B 4973   4.379   0.102   2.930
  415DOPC   C4B 4974   4.480   0.370   3.342
  416DOPC   NC3 4975  16.694   6.848   1.348
  416DOPC   PO4 4976  16.334   6.992   1.246
  416DOPC   GL1 4977  16.308   6.907   1.645
  416DOPC   GL2 4978  16.336   6.606   1.570
  416DOPC   C1A 4979  16.515   6.951   2.014
  416DOPC   D2A 4980  16.772   6.786   2.405
  416DOPC   C3A 4981  16.588   6.840   2.837
  416DOPC   C4A 4982  16.311   6.905   3.244
  416DOPC   C1B 4983  16.579   6.440   1.907
  416DOPC   D2B 4984  16.806   6.251   2.312
  416DOPC   C3B 4985  16.613   6.328   2.739
  416DOPC   C4B 4986  16.450   6.413   3.207
  417DOPC   NC3 4987   5.037   6.677   1.186
  417DOPC   PO4 4988   5.419   6.626   1.302
  417DOPC   GL1 4989   5.238   6.467   1.622
  417DOPC   GL2 4990   4.947   6.561   1.626
  417DOPC   C1A 4991   5.417   6.636   1.986
  417DOPC   D2A 4992   5.456   6.923   2.396
  417DOPC   C3A 4993   5.362   6.781   2.825
  417DOPC   C4A 4994   5.200   6.578   3.240
  417DOPC   C1B 4995   4.951   6.813   2.004
  417DOPC   D2B 4996   4.939   7.024   2.463
  417DOPC   C3B 4997   4.833   6.782   2.858
  417DOPC   C4B 4998   4.687   6.481   3.233
  418DOPC   NC3 4999  19.758   4.962   1.088
  418DOPC   PO4 5000  19.484   5.253   1.071
  418DOPC   GL1 5001  19.538   5.384   1.505
  418DOPC   GL2 5002  19.537   5.064   1.551
  418DOPC   C1A 5003  19.779   5.473   1.883
  418DOPC   D2A 5004  19.777   5.567   2.384
  418DOPC   C3A 5005  19.680   5.394   2.821
  418DOPC   C4A 5006  19.613   5.339   3.317
  418DOPC   C1B 5007  19.552   5.019   2.009
  418DOPC   D2B 5008  19.430   4.909   2.505
  418DOPC   C3B 5009  19.500   4.943   2.983
  418DOPC   C4B 5010  19.732   4.790   3.405
  419DOPC   NC3 5011   0.168   0.511   1.138
  419DOPC   PO4 5012  19.955   0.753   1.365
  419DOPC   GL1 5013   0.072   0.464   1.614
  419DOPC   GL2 5014   0.378   0.461   1.554
  419DOPC   C1A 5015   0.117   0.459   2.036
  419DOPC   D2A 5016   0.406   0.459   2.437
  419DOPC   C3A 5017   0.222   0.516   2.860
  419DOPC   C4A 5018   0.052   0.579   3.316
  419DOPC   C1B 5019   0.631   0.464   1.939
  419DOPC   D2B 5020   0.872   0.262   2.351
  419DOPC   C3B 5021   0.765   0.338   2.807
  419DOPC   C4B 5022   0.549   0.437   3.249
  420DOPC   NC3 5023   6.252   7.109   1.296
  420DOPC   PO4 5024   6.041   6.776   1.256
  420DOPC   GL1 5025   6.089   6.899   1.681
  420DOPC   GL2 5026   5.798   6.803   1.716
  420DOPC   C1A 5027   6.311   6.997   2.071
  420DOPC   D2A 5028   6.335   6.912   2.576
  420DOPC   C3A 5029   6.181   6.932   3.042
  420DOPC   C4A 5030   6.057   6.909   3.539
  420DOPC   C1B 5031   5.880   6.730   2.146
  420DOPC   D2B 5032   5.870   6.692   2.647
  420DOPC   C3B 5033   5.741   6.473   3.044
  420DOPC   C4B 5034   5.581   6.311   3.494
  421DOPC   NC3 5035   8.989   9.706   1.351
  421DOPC   PO4 5036   9.045   9.309   1.323
  421DOPC   GL1 5037   9.126   9.310   1.718
  421DOPC   GL2 5038   9.081   9.608   1.793
  421DOPC   C1A 5039   9.335   9.233   2.091
  421DOPC   D2A 5040   9.602   9.440   2.454
  421DOPC   C3A 5041   9.508   9.416   2.905
  421DOPC   C4A 5042   9.628   9.445   3.377
  421DOPC   C1B 5043   9.243   9.742   2.202
  421DOPC   D2B 5044   9.465   9.916   2.638
  421DOPC   C3B 5045   9.497   9.911   3.121
  421DOPC   C4B 5046   9.376   9.871   3.619
  422DOPC   NC3 5047  14.142   2.869   0.913
  422DOPC   PO4 5048  14.207   2.584   1.183
  422DOPC   GL1 5049  13.853   2.622   1.465
  422DOPC   GL2 5050  14.018   2.865   1.561
  422DOPC   C1A 5051  13.814   2.502   1.897
  422DOPC   D2A 5052  14.007   2.484   2.362
  422DOPC   C3A 5053  13.948   2.381   2.822
  422DOPC   C4A 5054  14.039   2.530   3.293
  422DOPC   C1B 5055  14.294   2.703   1.885
  422DOPC   D2B 5056  14.575   2.556   2.272
  422DOPC   C3B 5057  14.506   2.695   2.728
  422DOPC   C4B 5058  14.552   2.934   3.179
  423DOPC   NC3 5059  13.282   3.558   1.350
  423DOPC   PO4 5060  13.486   3.868   1.486
  423DOPC   GL1 5061  13.300   3.687   1.813
  423DOPC   GL2 5062  13.535   3.473   1.790
  423DOPC   C1A 5063  13.233   3.789   2.231
  423DOPC   D2A 5064  13.227   4.055   2.655
  423DOPC   C3A 5065  13.306   3.653   2.896
  423DOPC   C4A 5066  13.352   3.178   3.055
  423DOPC   C1B 5067  13.642   3.444   2.224
  423DOPC   D2B 5068  13.742   3.362   2.717
  423DOPC   C3B 5069  13.733   3.533   3.157
  423DOPC   C4B 5070  13.722   3.381   3.635
  424DOPC   NC3 5071  17.994   5.560   0.982
  424DOPC   PO4 5072  17.847   5.756   1.302
  424DOPC   GL1 5073  17.787   5.578   1.689
  424DOPC   GL2 5074  18.087   5.498   1.692
  424DOPC   C1A 5075  17.765   5.713   2.104
  424DOPC   D2A 5076  17.768   5.865   2.571
  424DOPC   C3A 5077  17.823   5.824   3.030
  424DOPC   C4A 5078  17.788   5.990   3.481
  424DOPC   C1B 5079  18.284   5.675   2.067
  424DOPC   D2B 5080  18.338   5.974   2.473
  424DOPC   C3B 5081  18.323   5.915   2.938
  424DOPC   C4B 5082  18.237   5.771   3.404
  425DOPC   NC3 5083  16.022   8.100   1.187
  425DOPC   PO4 5084  16.014   8.423   1.408
  425DOPC   GL1 5085  16.090   8.109   1.678
  425DOPC   GL2 5086  15.787   8.017   1.610
  425DOPC   C1A 5087  16.029   8.236   2.094
  425DOPC   D2A 5088  15.941   8.499   2.513
  425DOPC   C3A 5089  16.053   8.403   2.961
  425DOPC   C4A 5090  16.325   8.373   3.372
  425DOPC   C1B 5091  15.574   7.997   2.009
  425DOPC   D2B 5092  15.597   8.103   2.509
  425DOPC   C3B 5093  15.637   8.084   2.984
  425DOPC   C4B 5094  15.787   8.259   3.433
  426DOPC   NC3 5095   0.399   6.098   1.085
  426DOPC   PO4 5096   0.800   6.107   1.056
  426DOPC   GL1 5097   0.774   6.100   1.508
  426DOPC   GL2 5098   0.542   5.890   1.491
  426DOPC   C1A 5099   0.759   6.141   1.962
  426DOPC   D2A 5100   0.744   5.972   2.463
  426DOPC   C3A 5101   0.752   6.113   2.918
  426DOPC   C4A 5102   0.837   6.188   3.400
  426DOPC   C1B 5103   0.376   5.815   1.922
  426DOPC   D2B 5104   0.248   5.783   2.424
  426DOPC   C3B 5105   0.406   5.749   2.864
  426DOPC   C4B 5106   0.375   5.964   3.315
  427DOPC   NC3 5107   1.043   8.758   1.047
  427DOPC   PO4 5108   1.039   9.033   1.333
  427DOPC   GL1 5109   1.228   8.643   1.461
  427DOPC   GL2 5110   1.412   8.829   1.602
  427DOPC   C1A 5111   1.071   8.517   1.841
  427DOPC   D2A 5112   0.931   8.537   2.321
  427DOPC   C3A 5113   1.060   8.760   2.726
  427DOPC   C4A 5114   1.269   8.887   3.172
  427DOPC   C1B 5115   1.271   8.949   2.020
  427DOPC   D2B 5116   1.059   9.195   2.411
  427DOPC   C3B 5117   1.004   9.258   2.880
  427DOPC   C4B 5118   0.803   9.113   3.303
  428DOPC   NC3 5119   7.836   1.720   1.137
  428DOPC   PO4 5120   8.030   2.070   1.180
  428DOPC   GL1 5121   7.999   2.306   1.534
  428DOPC   GL2 5122   8.242   2.197   1.668
  428DOPC   C1A 5123   7.775   2.216   1.908
  428DOPC   D2A 5124   7.719   2.079   2.402
  428DOPC   C3A 5125   7.798   2.077   2.885
  428DOPC   C4A 5126   7.862   1.976   3.378
  428DOPC   C1B 5127   8.177   1.972   2.085
  428DOPC   D2B 5128   8.149   1.818   2.573
  428DOPC   C3B 5129   8.242   1.785   3.041
  428DOPC   C4B 5130   8.329   1.691   3.521
  429DOPC   NC3 5131   2.465   3.181   1.219
  429DOPC   PO4 5132   2.073   3.230   1.297
  429DOPC   GL1 5133   2.225   3.264   1.728
  429DOPC   GL2 5134   2.164   3.565   1.730
  429DOPC   C1A 5135   2.349   3.248   2.167
  429DOPC   D2A 5136   2.388   3.352   2.663
  429DOPC   C3A 5137   2.784   3.357   2.944
  429DOPC   C4A 5138   2.983   3.242   3.393
  429DOPC   C1B 5139   2.235   3.758   2.148
  429DOPC   D2B 5140   2.361   3.859   2.639
  429DOPC   C3B 5141   2.497   3.758   3.095
  429DOPC   C4B 5142   2.630   3.605   3.563
  430DOPC   NC3 5143  11.437   7.633   1.147
  430DOPC   PO4 5144  11.785   7.570   1.329
  430DOPC   GL1 5145  11.725   7.760   1.687
  430DOPC   GL2 5146  11.428   7.842   1.616
  430DOPC   C1A 5147  11.650   7.610   2.110
  430DOPC   D2A 5148  11.537   7.508   2.596
  430DOPC   C3A 5149  11.614   7.430   3.063
  430DOPC   C4A 5150  11.695   7.377   3.555
  430DOPC   C1B 5151  11.149   7.652   1.904
  430DOPC   D2B 5152  10.818   7.395   2.186
  430DOPC   C3B 5153  10.963   7.402   2.630
  430DOPC   C4B 5154  11.108   7.293   3.094
  431DOPC   NC3 5155   3.724   9.643   1.254
  431DOPC   PO4 5156   3.671   9.287   1.444
  431DOPC   GL1 5157   3.562   9.268   1.884
  431DOPC   GL2 5158   3.311   9.436   1.797
  431DOPC   C1A 5159   3.408   9.325   2.304
  431DOPC   D2A 5160   3.127   9.459   2.693
  431DOPC   C3A 5161   3.514   9.421   2.948
  431DOPC   C4A 5162   3.891   9.213   3.165
  431DOPC   C1B 5163   3.265   9.776   2.113
  431DOPC   D2B 5164   3.262   0.034   2.555
  431DOPC   C3B 5165   3.256   9.870   2.994
  431DOPC   C4B 5166   3.090   9.464   3.245
  432DOPC   NC3 5167   4.171   8.438   1.224
  432DOPC   PO4 5168   4.494   8.673   1.265
  432DOPC   GL1 5169   4.399   8.795   1.648
  432DOPC   GL2 5170   4.280   8.508   1.681
  432DOPC   C1A 5171   4.579   8.938   2.025
  432DOPC   D2A 5172   4.743   8.918   2.497
  432DOPC   C3A 5173   4.574   9.092   2.904
  432DOPC   C4A 5174   4.375   9.174   3.350
  432DOPC   C1B 5175   4.129   8.666   2.052
  432DOPC   D2B 5176   4.218   8.967   2.448
  432DOPC   C3B 5177   4.176   8.754   2.867
  432DOPC   C4B 5178   4.000   8.382   3.143
  433DOPC   NC3 5179  16.760   2.521   1.092
  433DOPC   PO4 5180  17.023   2.407   1.375
  433DOPC   GL1 5181  17.091   2.591   1.717
  433DOPC   GL2 5182  17.291   2.796   1.689
  433DOPC   C1A 5183  17.045   2.566   2.153
  433DOPC   D2A 5184  17.057   2.474   2.641
  433DOPC   C3A 5185  17.103   2.600   3.091
  433DOPC   C4A 5186  17.054   2.779   3.555
  433DOPC   C1B 5187  17.540   2.712   2.037
  433DOPC   D2B 5188  17.709   2.538   2.458
  433DOPC   C3B 5189  17.609   2.744   2.858
  433DOPC   C4B 5190  17.480   2.892   3.294
  434DOPC   NC3 5191   6.569   2.336   1.149
  434DOPC   PO4 5192   6.265   2.577   1.265
  434DOPC   GL1 5193   6.436   2.422   1.609
  434DOPC   GL2 5194   6.720   2.535   1.554
  434DOPC   C1A 5195   6.468   2.413   2.035
  434DOPC   D2A 5196   6.448   2.571   2.499
  434DOPC   C3A 5197   6.483   2.399   2.925
  434DOPC   C4A 5198   6.593   2.541   3.381
  434DOPC   C1B 5199   6.945   2.557   1.952
  434DOPC   D2B 5200   6.959   2.598   2.458
  434DOPC   C3B 5201   6.822   2.799   2.866
  434DOPC   C4B 5202   6.798   3.020   3.309
  435DOPC   NC3 5203   6.824   9.566   1.132
  435DOPC   PO4 5204   6.803   9.970   1.067
  435DOPC   GL1 5205   6.809   0.100   1.484
  435DOPC   GL2 5206   6.739   9.794   1.554
  435DOPC   C1A 5207   6.986   0.104   1.882
  435DOPC   D2A 5208   7.061   9.908   2.354
  435DOPC   C3A 5209   6.843   9.921   2.789
  435DOPC   C4A 5210   6.451   0.056   3.084
  435DOPC   C1B 5211   6.699   9.707   2.005
  435DOPC   D2B 5212   6.662   9.514   2.472
  435DOPC   C3B 5213   6.398   9.582   2.854
  435DOPC   C4B 5214   6.049   9.698   3.185
  436DOPC   NC3 5215   8.344   4.348   1.077
  436DOPC   PO4 5216   8.156   4.624   1.301
  436DOPC   GL1 5217   8.272   4.338   1.574
  436DOPC   GL2 5218   8.128   4.100   1.440
  436DOPC   C1A 5219   8.208   4.344   2.013
  436DOPC   D2A 5220   8.273   4.163   2.464
  436DOPC   C3A 5221   8.158   4.312   2.887
  436DOPC   C4A 5222   8.028   4.501   3.324
  436DOPC   C1B 5223   7.883   4.050   1.803
  436DOPC   D2B 5224   7.772   4.186   2.290
  436DOPC   C3B 5225   7.736   4.073   2.761
  436DOPC   C4B 5226   7.777   3.944   3.254
  437DOPC   NC3 5227  13.731   9.492   1.468
  437DOPC   PO4 5228  13.442   9.708   1.276
  437DOPC   GL1 5229  13.211   9.745   1.688
  437DOPC   GL2 5230  13.295   9.455   1.675
  437DOPC   C1A 5231  13.321   9.809   2.132
  437DOPC   D2A 5232  13.414   9.897   2.630
  437DOPC   C3A 5233  13.244   9.650   2.996
  437DOPC   C4A 5234  13.446   9.487   3.426
  437DOPC   C1B 5235  13.488   9.279   2.030
  437DOPC   D2B 5236  13.499   9.024   2.482
  437DOPC   C3B 5237  13.292   9.121   2.909
  437DOPC   C4B 5238  12.992   9.307   3.280
  438DOPC   NC3 5239  10.399   6.395   1.164
  438DOPC   PO4 5240  10.193   6.114   1.361
  438DOPC   GL1 5241  10.048   6.460   1.592
  438DOPC   GL2 5242  10.323   6.602   1.573
  438DOPC   C1A 5243  10.139   6.466   2.018
  438DOPC   D2A 5244  10.474   6.501   2.387
  438DOPC   C3A 5245  10.466   6.531   2.847
  438DOPC   C4A 5246  10.402   6.557   3.332
  438DOPC   C1B 5247  10.626   6.650   1.929
  438DOPC   D2B 5248  10.913   6.751   2.359
  438DOPC   C3B 5249  10.851   6.885   2.818
  438DOPC   C4B 5250  10.809   6.911   3.316
  439DOPC   NC3 5251   0.487   4.085   1.210
  439DOPC   PO4 5252   0.597   4.431   1.382
  439DOPC   GL1 5253   0.839   4.244   1.685
  439DOPC   GL2 5254   0.675   3.985   1.631
  439DOPC   C1A 5255   0.748   4.361   2.106
  439DOPC   D2A 5256   0.689   4.445   2.602
  439DOPC   C3A 5257   0.586   4.300   3.044
  439DOPC   C4A 5258   0.466   4.222   3.530
  439DOPC   C1B 5259   0.341   4.099   1.916
  439DOPC   D2B 5260   0.243   4.428   2.288
  439DOPC   C3B 5261   0.192   4.280   2.727
  439DOPC   C4B 5262   0.196   3.963   3.116
  440DOPC   NC3 5263  11.243   3.527   1.173
  440DOPC   PO4 5264  11.630   3.383   1.180
  440DOPC   GL1 5265  11.582   3.358   1.619
  440DOPC   GL2 5266  11.312   3.235   1.537
  440DOPC   C1A 5267  11.598   3.375   2.077
  440DOPC   D2A 5268  11.641   3.334   2.570
  440DOPC   C3A 5269  11.602   3.381   3.040
  440DOPC   C4A 5270  11.616   3.343   3.534
  440DOPC   C1B 5271  11.126   3.431   1.872
  440DOPC   D2B 5272  11.182   3.530   2.357
  440DOPC   C3B 5273  11.140   3.560   2.817
  440DOPC   C4B 5274  10.973   3.817   3.199
  441DOPC   NC3 5275   7.610   6.780   1.333
  441DOPC   PO4 5276   7.244   6.872   1.451
  441DOPC   GL1 5277   7.389   6.763   1.822
  441DOPC   GL2 5278   7.436   6.462   1.731
  441DOPC   C1A 5279   7.247   6.776   2.248
  441DOPC   D2A 5280   7.451   6.702   2.698
  441DOPC   C3A 5281   7.411   6.849   3.130
  441DOPC   C4A 5282   7.365   7.027   3.585
  441DOPC   C1B 5283   7.275   6.265   2.119
  441DOPC   D2B 5284   7.110   6.341   2.598
  441DOPC   C3B 5285   6.921   6.309   3.044
  441DOPC   C4B 5286   6.815   6.246   3.526
  442DOPC   NC3 5287   5.264   4.423   1.134
  442DOPC   PO4 5288   5.580   4.326   1.365
  442DOPC   GL1 5289   5.565   4.057   1.690
  442DOPC   GL2 5290   5.277   4.029   1.685
  442DOPC   C1A 5291   5.603   4.282   2.065
  442DOPC   D2A 5292   5.580   4.572   2.479
  442DOPC   C3A 5293   5.381   4.419   2.878
  442DOPC   C4A 5294   5.364   3.989   3.128
  442DOPC   C1B 5295   5.227   3.884   2.105
  442DOPC   D2B 5296   5.273   3.821   2.603
  442DOPC   C3B 5297   4.940   4.060   2.858
  442DOPC   C4B 5298   4.634   4.438   2.982
  443DOPC   NC3 5299   8.722   7.535   1.347
  443DOPC   PO4 5300   8.331   7.528   1.451
  443DOPC   GL1 5301   8.410   7.204   1.674
  443DOPC   GL2 5302   8.704   7.183   1.647
  443DOPC   C1A 5303   8.465   7.227   2.107
  443DOPC   D2A 5304   8.742   7.114   2.506
  443DOPC   C3A 5305   8.565   7.335   2.873
  443DOPC   C4A 5306   8.441   7.662   3.212
  443DOPC   C1B 5307   8.912   7.429   1.965
  443DOPC   D2B 5308   9.126   7.534   2.412
  443DOPC   C3B 5309   9.016   7.586   2.869
  443DOPC   C4B 5310   8.978   7.883   3.265
  444DOPC   NC3 5311   3.040   8.415   0.993
  444DOPC   PO4 5312   3.192   8.608   1.315
  444DOPC   GL1 5313   3.330   8.481   1.694
  444DOPC   GL2 5314   3.212   8.206   1.707
  444DOPC   C1A 5315   3.605   8.497   2.045
  444DOPC   D2A 5316   3.868   8.521   2.487
  444DOPC   C3A 5317   3.576   8.338   2.815
  444DOPC   C4A 5318   3.223   8.513   3.125
  444DOPC   C1B 5319   3.335   8.050   2.112
  444DOPC   D2B 5320   3.502   7.886   2.561
  444DOPC   C3B 5321   3.465   7.866   3.032
  444DOPC   C4B 5322   3.382   7.998   3.504
  445DOPC   NC3 5323   5.035   5.914   1.108
  445DOPC   PO4 5324   4.819   6.212   1.276
  445DOPC   GL1 5325   4.994   6.093   1.618
  445DOPC   GL2 5326   5.024   5.795   1.566
  445DOPC   C1A 5327   5.066   6.270   2.019
  445DOPC   D2A 5328   5.076   6.531   2.445
  445DOPC   C3A 5329   5.013   6.291   2.850
  445DOPC   C4A 5330   4.991   6.070   3.302
  445DOPC   C1B 5331   5.137   5.708   1.987
  445DOPC   D2B 5332   4.931   5.774   2.437
  445DOPC   C3B 5333   4.805   5.781   2.885
  445DOPC   C4B 5334   4.635   5.683   3.336
  446DOPC   NC3 5335  15.412   3.330   1.064
  446DOPC   PO4 5336  15.472   3.525   1.407
  446DOPC   GL1 5337  15.129   3.375   1.629
  446DOPC   GL2 5338  15.287   3.110   1.658
  446DOPC   C1A 5339  14.916   3.448   2.021
  446DOPC   D2A 5340  14.661   3.440   2.454
  446DOPC   C3A 5341  14.703   3.564   2.904
  446DOPC   C4A 5342  14.951   3.794   3.264
  446DOPC   C1B 5343  15.321   3.137   2.084
  446DOPC   D2B 5344  15.300   3.252   2.558
  446DOPC   C3B 5345  15.468   3.341   2.977
  446DOPC   C4B 5346  15.443   3.520   3.432
  447DOPC   NC3 5347   8.819   9.470   0.896
  447DOPC   PO4 5348   8.560   9.471   1.210
  447DOPC   GL1 5349   8.691   9.442   1.636
  447DOPC   GL2 5350   8.629   9.743   1.648
  447DOPC   C1A 5351   8.837   9.341   2.070
  447DOPC   D2A 5352   9.065   9.390   2.529
  447DOPC   C3A 5353   8.852   9.341   2.944
  447DOPC   C4A 5354   8.638   9.386   3.389
  447DOPC   C1B 5355   8.753   9.882   2.055
  447DOPC   D2B 5356   8.961   0.083   2.467
  447DOPC   C3B 5357   8.993   9.839   2.869
  447DOPC   C4B 5358   9.097   9.614   3.297
  448DOPC   NC3 5359   2.023   2.739   1.065
  448DOPC   PO4 5360   1.854   2.386   1.162
  448DOPC   GL1 5361   1.716   2.554   1.517
  448DOPC   GL2 5362   1.813   2.843   1.479
  448DOPC   C1A 5363   1.697   2.440   1.946
  448DOPC   D2A 5364   1.650   2.214   2.410
  448DOPC   C3A 5365   1.752   2.427   2.823
  448DOPC   C4A 5366   1.800   2.707   3.235
  448DOPC   C1B 5367   1.962   2.897   1.905
  448DOPC   D2B 5368   2.087   2.884   2.408
  448DOPC   C3B 5369   2.037   3.010   2.869
  448DOPC   C4B 5370   1.904   3.215   3.305
  449DOPC   NC3 5371   1.977   9.636   1.182
  449DOPC   PO4 5372   2.043   9.242   1.138
  449DOPC   GL1 5373   2.190   9.191   1.567
  449DOPC   GL2 5374   2.022   9.452   1.613
  449DOPC   C1A 5375   2.215   9.204   2.019
  449DOPC   D2A 5376   2.028   9.268   2.486
  449DOPC   C3A 5377   2.110   9.371   2.947
  449DOPC   C4A 5378   2.102   9.561   3.424
  449DOPC   C1B 5379   1.942   9.617   2.041
  449DOPC   D2B 5380   1.839   9.773   2.509
  449DOPC   C3B 5381   1.800   9.783   2.983
  449DOPC   C4B 5382   1.627   9.815   3.450
  450DOPC   NC3 5383   5.608   4.812   1.227
  450DOPC   PO4 5384   5.592   5.220   1.196
  450DOPC   GL1 5385   5.959   5.291   1.442
  450DOPC   GL2 5386   5.914   4.996   1.524
  450DOPC   C1A 5387   6.042   5.374   1.859
  450DOPC   D2A 5388   6.129   5.235   2.327
  450DOPC   C3A 5389   6.100   5.221   2.807
  450DOPC   C4A 5390   5.954   5.090   3.266
  450DOPC   C1B 5391   5.705   5.003   1.916
  450DOPC   D2B 5392   5.656   5.088   2.413
  450DOPC   C3B 5393   5.644   4.934   2.854
  450DOPC   C4B 5394   5.506   4.732   3.279
  451DOPC   NC3 5395  13.549   8.777   1.242
  451DOPC   PO4 5396  13.161   8.850   1.275
  451DOPC   GL1 5397  13.244   9.012   1.668
  451DOPC   GL2 5398  13.555   9.042   1.634
  451DOPC   C1A 5399  13.203   8.852   2.079
  451DOPC   D2A 5400  13.282   8.534   2.461
  451DOPC   C3A 5401  13.247   8.594   2.918
  451DOPC   C4A 5402  13.259   8.853   3.337
  451DOPC   C1B 5403  13.738   8.846   2.026
  451DOPC   D2B 5404  13.800   8.583   2.466
  451DOPC   C3B 5405  13.739   8.786   2.891
  451DOPC   C4B 5406  13.745   9.086   3.286
  452DOPC   NC3 5407  12.133   1.677   1.338
  452DOPC   PO4 5408  12.148   1.296   1.209
  452DOPC   GL1 5409  12.355   1.352   1.605
  452DOPC   GL2 5410  12.251   1.080   1.690
  452DOPC   C1A 5411  12.166   1.591   1.915
  452DOPC   D2A 5412  11.881   1.571   2.328
  452DOPC   C3A 5413  11.992   1.508   2.789
  452DOPC   C4A 5414  12.025   1.419   3.289
  452DOPC   C1B 5415  11.997   1.093   2.081
  452DOPC   D2B 5416  11.717   1.101   2.522
  452DOPC   C3B 5417  11.674   1.129   3.011
  452DOPC   C4B 5418  11.602   1.130   3.512
  453DOPC   NC3 5419  19.449   8.052   1.133
  453DOPC   PO4 5420  19.373   7.980   1.517
  453DOPC   GL1 5421  19.634   7.863   1.823
  453DOPC   GL2 5422  19.835   8.067   1.775
  453DOPC   C1A 5423  19.520   7.930   2.241
  453DOPC   D2A 5424  19.325   8.036   2.687
  453DOPC   C3A 5425  19.551   8.328   2.976
  453DOPC   C4A 5426  19.514   8.666   3.349
  453DOPC   C1B 5427  19.978   8.192   2.190
  453DOPC   D2B 5428   0.032   8.186   2.693
  453DOPC   C3B 5429  19.850   7.940   3.054
  453DOPC   C4B 5430  19.997   7.717   3.466
  454DOPC   NC3 5431   1.545   4.973   1.108
  454DOPC   PO4 5432   1.315   5.267   1.278
  454DOPC   GL1 5433   1.527   5.094   1.634
  454DOPC   GL2 5434   1.398   4.819   1.530
  454DOPC   C1A 5435   1.507   5.058   2.090
  454DOPC   D2A 5436   1.369   4.956   2.573
  454DOPC   C3A 5437   1.342   4.980   3.047
  454DOPC   C4A 5438   1.326   4.984   3.552
  454DOPC   C1B 5439   1.097   4.854   1.838
  454DOPC   D2B 5440   0.948   4.799   2.317
  454DOPC   C3B 5441   0.844   4.982   2.746
  454DOPC   C4B 5442   0.520   5.265   3.003
  455DOPC   NC3 5443  10.288   7.366   0.991
  455DOPC   PO4 5444  10.061   7.603   1.223
  455DOPC   GL1 5445  10.137   7.470   1.621
  455DOPC   GL2 5446  10.141   7.192   1.464
  455DOPC   C1A 5447  10.310   7.464   2.051
  455DOPC   D2A 5448  10.448   7.463   2.541
  455DOPC   C3A 5449  10.602   7.369   2.984
  455DOPC   C4A 5450  10.646   7.397   3.479
  455DOPC   C1B 5451  10.249   6.995   1.838
  455DOPC   D2B 5452  10.448   7.001   2.295
  455DOPC   C3B 5453  10.343   7.008   2.750
  455DOPC   C4B 5454  10.292   7.060   3.244
  456DOPC   NC3 5455  12.650   3.594   1.185
  456DOPC   PO4 5456  12.890   3.270   1.232
  456DOPC   GL1 5457  12.954   3.403   1.660
  456DOPC   GL2 5458  12.899   3.693   1.569
  456DOPC   C1A 5459  12.778   3.421   2.082
  456DOPC   D2A 5460  12.568   3.468   2.543
  456DOPC   C3A 5461  12.543   3.377   3.014
  456DOPC   C4A 5462  12.529   3.255   3.494
  456DOPC   C1B 5463  12.766   3.903   1.923
  456DOPC   D2B 5464  12.778   3.944   2.426
  456DOPC   C3B 5465  12.807   3.807   2.871
  456DOPC   C4B 5466  12.827   3.669   3.340
  457DOPC   NC3 5467  12.162   9.364   0.987
  457DOPC   PO4 5468  12.468   9.466   1.237
  457DOPC   GL1 5469  12.336   9.313   1.624
  457DOPC   GL2 5470  12.045   9.371   1.510
  457DOPC   C1A 5471  12.385   9.456   2.049
  457DOPC   D2A 5472  12.376   9.722   2.490
  457DOPC   C3A 5473  12.162   9.563   2.885
  457DOPC   C4A 5474  11.978   9.145   3.105
  457DOPC   C1B 5475  11.867   9.619   1.851
  457DOPC   D2B 5476  11.667   9.841   2.267
  457DOPC   C3B 5477  11.621   9.917   2.733
  457DOPC   C4B 5478  11.701   9.852   3.219
  458DOPC   NC3 5479   2.953   6.820   1.001
  458DOPC   PO4 5480   3.175   6.770   1.334
  458DOPC   GL1 5481   3.122   6.855   1.740
  458DOPC   GL2 5482   3.021   7.143   1.689
  458DOPC   C1A 5483   2.970   6.744   2.145
  458DOPC   D2A 5484   2.684   6.718   2.566
  458DOPC   C3A 5485   2.685   6.456   2.963
  458DOPC   C4A 5486   2.758   6.236   3.403
  458DOPC   C1B 5487   2.829   7.240   2.092
  458DOPC   D2B 5488   2.749   7.235   2.598
  458DOPC   C3B 5489   2.624   7.002   3.002
  458DOPC   C4B 5490   2.479   6.710   3.384
  459DOPC   NC3 5491  14.275   4.560   1.051
  459DOPC   PO4 5492  14.005   4.780   1.276
  459DOPC   GL1 5493  14.019   4.540   1.605
  459DOPC   GL2 5494  14.179   4.326   1.475
  459DOPC   C1A 5495  13.962   4.433   2.030
  459DOPC   D2A 5496  13.888   4.334   2.510
  459DOPC   C3A 5497  14.010   4.583   2.890
  459DOPC   C4A 5498  14.151   4.869   3.273
  459DOPC   C1B 5499  14.292   4.099   1.849
  459DOPC   D2B 5500  14.244   3.989   2.345
  459DOPC   C3B 5501  14.318   4.186   2.774
  459DOPC   C4B 5502  14.307   4.385   3.237
  460DOPC   NC3 5503  12.009   5.637   1.006
  460DOPC   PO4 5504  12.354   5.683   1.213
  460DOPC   GL1 5505  12.256   5.742   1.607
  460DOPC   GL2 5506  11.966   5.764   1.625
  460DOPC   C1A 5507  12.410   5.666   2.014
  460DOPC   D2A 5508  12.521   5.611   2.499
  460DOPC   C3A 5509  12.255   5.571   2.883
  460DOPC   C4A 5510  12.045   5.602   3.320
  460DOPC   C1B 5511  11.887   5.582   2.039
  460DOPC   D2B 5512  11.848   5.451   2.517
  460DOPC   C3B 5513  11.723   5.692   2.895
  460DOPC   C4B 5514  11.586   5.899   3.319
  461DOPC   NC3 5515   8.491   5.990   1.411
  461DOPC   PO4 5516   8.754   6.254   1.249
  461DOPC   GL1 5517   8.852   6.247   1.672
  461DOPC   GL2 5518   8.550   6.327   1.740
  461DOPC   C1A 5519   9.144   6.168   2.031
  461DOPC   D2A 5520   9.317   6.091   2.509
  461DOPC   C3A 5521   9.119   6.257   2.907
  461DOPC   C4A 5522   8.701   6.414   3.143
  461DOPC   C1B 5523   8.641   6.238   2.162
  461DOPC   D2B 5524   8.672   6.225   2.662
  461DOPC   C3B 5525   8.654   5.907   3.017
  461DOPC   C4B 5526   8.486   5.477   3.240
  462DOPC   NC3 5527  18.118   2.161   1.276
  462DOPC   PO4 5528  17.842   1.882   1.293
  462DOPC   GL1 5529  17.726   2.025   1.703
  462DOPC   GL2 5530  18.027   2.037   1.712
  462DOPC   C1A 5531  17.746   1.906   2.124
  462DOPC   D2A 5532  17.937   1.652   2.513
  462DOPC   C3A 5533  17.888   1.895   2.910
  462DOPC   C4A 5534  18.122   2.153   3.260
  462DOPC   C1B 5535  18.288   1.955   2.052
  462DOPC   D2B 5536  18.601   2.057   2.431
  462DOPC   C3B 5537  18.404   1.919   2.831
  462DOPC   C4B 5538  18.239   1.645   3.214
  463DOPC   NC3 5539   5.597   0.572   1.130
  463DOPC   PO4 5540   5.839   0.877   1.222
  463DOPC   GL1 5541   5.605   0.946   1.586
  463DOPC   GL2 5542   5.605   0.635   1.622
  463DOPC   C1A 5543   5.626   0.979   2.020
  463DOPC   D2A 5544   5.739   1.042   2.493
  463DOPC   C3A 5545   5.715   0.995   2.953
  463DOPC   C4A 5546   5.686   0.582   3.221
  463DOPC   C1B 5547   5.728   0.450   2.031
  463DOPC   D2B 5548   5.870   0.145   2.424
  463DOPC   C3B 5549   5.958   0.162   2.892
  463DOPC   C4B 5550   6.036   0.208   3.377
  464DOPC   NC3 5551  11.924   2.078   1.060
  464DOPC   PO4 5552  11.680   1.905   1.328
  464DOPC   GL1 5553  11.737   2.206   1.599
  464DOPC   GL2 5554  12.017   2.286   1.462
  464DOPC   C1A 5555  11.709   2.029   2.037
  464DOPC   D2A 5556  11.769   2.022   2.538
  464DOPC   C3A 5557  11.743   1.910   2.994
  464DOPC   C4A 5558  11.527   1.588   3.304
  464DOPC   C1B 5559  12.151   2.096   1.819
  464DOPC   D2B 5560  12.213   1.969   2.307
  464DOPC   C3B 5561  12.227   1.983   2.786
  464DOPC   C4B 5562  12.317   1.862   3.265
  465DOPC   NC3 5563   8.620   9.985   1.101
  465DOPC   PO4 5564   8.904   0.219   1.280
  465DOPC   GL1 5565   8.851   0.448   1.655
  465DOPC   GL2 5566   8.885   0.724   1.540
  465DOPC   C1A 5567   8.791   0.472   2.109
  465DOPC   D2A 5568   8.785   0.563   2.606
  465DOPC   C3A 5569   8.688   0.266   2.957
  465DOPC   C4A 5570   8.621   9.890   3.282
  465DOPC   C1B 5571   9.035   0.947   1.898
  465DOPC   D2B 5572   9.205   1.074   2.363
  465DOPC   C3B 5573   9.224   0.883   2.793
  465DOPC   C4B 5574   9.100   0.678   3.218
  466DOPC   NC3 5575  18.589   7.187   1.339
  466DOPC   PO4 5576  18.569   7.573   1.450
  466DOPC   GL1 5577  18.257   7.367   1.644
  466DOPC   GL2 5578  18.055   7.560   1.567
  466DOPC   C1A 5579  18.349   7.350   2.080
  466DOPC   D2A 5580  18.287   7.341   2.583
  466DOPC   C3A 5581  18.426   7.130   2.984
  466DOPC   C4A 5582  18.369   7.026   3.468
  466DOPC   C1B 5583  17.946   7.723   1.960
  466DOPC   D2B 5584  17.819   7.850   2.430
  466DOPC   C3B 5585  18.012   7.722   2.836
  466DOPC   C4B 5586  18.165   7.483   3.248
  467DOPC   NC3 5587  10.397   4.077   1.098
  467DOPC   PO4 5588  10.702   4.312   1.205
  467DOPC   GL1 5589  10.558   4.364   1.599
  467DOPC   GL2 5590  10.295   4.218   1.540
  467DOPC   C1A 5591  10.580   4.274   2.028
  467DOPC   D2A 5592  10.515   4.095   2.494
  467DOPC   C3A 5593  10.606   4.198   2.940
  467DOPC   C4A 5594  10.673   4.321   3.407
  467DOPC   C1B 5595  10.203   3.936   1.900
  467DOPC   D2B 5596  10.164   3.724   2.375
  467DOPC   C3B 5597  10.148   3.904   2.827
  467DOPC   C4B 5598  10.149   4.236   3.208
  468DOPC   NC3 5599   4.949   0.483   1.084
  468DOPC   PO4 5600   4.732   0.173   1.221
  468DOPC   GL1 5601   4.893   0.140   1.635
  468DOPC   GL2 5602   5.029   0.404   1.591
  468DOPC   C1A 5603   4.789   0.241   2.058
  468DOPC   D2A 5604   4.542   0.356   2.483
  468DOPC   C3A 5605   4.820   0.382   2.851
  468DOPC   C4A 5606   5.201   0.434   3.156
  468DOPC   C1B 5607   5.208   0.575   1.985
  468DOPC   D2B 5608   5.254   0.865   2.400
  468DOPC   C3B 5609   5.210   0.873   2.874
  468DOPC   C4B 5610   5.264   0.894   3.369
  469DOPC   NC3 5611  16.126   5.437   1.113
  469DOPC   PO4 5612  16.013   5.662   1.424
  469DOPC   GL1 5613  15.949   5.500   1.830
  469DOPC   GL2 5614  15.645   5.472   1.783
  469DOPC   C1A 5615  15.986   5.478   2.275
  469DOPC   D2A 5616  15.736   5.274   2.651
  469DOPC   C3A 5617  15.981   5.592   2.904
  469DOPC   C4A 5618  16.091   5.821   3.336
  469DOPC   C1B 5619  15.489   5.528   2.209
  469DOPC   D2B 5620  15.482   5.712   2.692
  469DOPC   C3B 5621  15.621   5.882   3.129
  469DOPC   C4B 5622  15.709   6.031   3.608
  470DOPC   NC3 5623   0.358   1.211   1.086
  470DOPC   PO4 5624   0.466   0.891   1.308
  470DOPC   GL1 5625   0.278   0.859   1.724
  470DOPC   GL2 5626   0.143   1.126   1.646
  470DOPC   C1A 5627   0.377   0.914   2.167
  470DOPC   D2A 5628   0.304   1.074   2.652
  470DOPC   C3A 5629   0.293   0.990   3.117
  470DOPC   C4A 5630   0.302   0.932   3.617
  470DOPC   C1B 5631   0.163   1.379   2.032
  470DOPC   D2B 5632   0.240   1.604   2.484
  470DOPC   C3B 5633   0.362   1.543   2.946
  470DOPC   C4B 5634   0.535   1.356   3.384
  471DOPC   NC3 5635   4.501   3.507   1.147
  471DOPC   PO4 5636   4.637   3.836   1.326
  471DOPC   GL1 5637   4.701   3.545   1.624
  471DOPC   GL2 5638   4.455   3.393   1.593
  471DOPC   C1A 5639   4.715   3.741   2.023
  471DOPC   D2A 5640   4.728   3.728   2.523
  471DOPC   C3A 5641   4.561   3.533   2.916
  471DOPC   C4A 5642   4.300   3.508   3.325
  471DOPC   C1B 5643   4.391   3.353   2.016
  471DOPC   D2B 5644   4.382   3.325   2.501
  471DOPC   C3B 5645   4.166   3.214   2.912
  471DOPC   C4B 5646   3.977   3.106   3.368
  472DOPC   NC3 5647  18.837   1.967   1.224
  472DOPC   PO4 5648  18.971   2.325   1.376
  472DOPC   GL1 5649  19.003   2.355   1.841
  472DOPC   GL2 5650  18.930   2.057   1.815
  472DOPC   C1A 5651  18.945   2.422   2.296
  472DOPC   D2A 5652  18.822   2.350   2.797
  472DOPC   C3A 5653  19.009   2.321   3.236
  472DOPC   C4A 5654  19.110   2.326   3.729
  472DOPC   C1B 5655  19.014   1.820   2.189
  472DOPC   D2B 5656  19.204   1.611   2.611
  472DOPC   C3B 5657  18.928   1.831   2.931
  472DOPC   C4B 5658  18.616   1.985   3.293
  473DOPC   NC3 5659  11.215   8.944   1.074
  473DOPC   PO4 5660  11.038   8.630   1.252
  473DOPC   GL1 5661  11.158   8.688   1.650
  473DOPC   GL2 5662  11.399   8.842   1.538
  473DOPC   C1A 5663  11.042   8.709   2.082
  473DOPC   D2A 5664  10.919   8.783   2.555
  473DOPC   C3A 5665  11.009   8.581   2.956
  473DOPC   C4A 5666  11.146   8.361   3.375
  473DOPC   C1B 5667  11.512   8.932   1.948
  473DOPC   D2B 5668  11.469   9.066   2.432
  473DOPC   C3B 5669  11.218   9.170   2.821
  473DOPC   C4B 5670  10.984   9.331   3.240
  474DOPC   NC3 5671   6.959   1.776   1.359
  474DOPC   PO4 5672   6.990   2.178   1.373
  474DOPC   GL1 5673   6.761   2.108   1.682
  474DOPC   GL2 5674   6.513   1.993   1.560
  474DOPC   C1A 5675   6.809   1.970   2.085
  474DOPC   D2A 5676   6.557   2.061   2.489
  474DOPC   C3A 5677   6.763   1.953   2.878
  474DOPC   C4A 5678   6.950   1.886   3.312
  474DOPC   C1B 5679   6.310   1.929   1.980
  474DOPC   D2B 5680   6.120   1.813   2.456
  474DOPC   C3B 5681   6.217   1.880   2.914
  474DOPC   C4B 5682   6.476   2.049   3.297
  475DOPC   NC3 5683   4.334   4.296   1.233
  475DOPC   PO4 5684   4.100   4.625   1.181
  475DOPC   GL1 5685   3.834   4.548   1.529
  475DOPC   GL2 5686   3.925   4.254   1.473
  475DOPC   C1A 5687   3.892   4.709   1.954
  475DOPC   D2A 5688   3.980   4.882   2.424
  475DOPC   C3A 5689   3.980   4.594   2.802
  475DOPC   C4A 5690   4.178   4.372   3.203
  475DOPC   C1B 5691   4.144   4.231   1.850
  475DOPC   D2B 5692   4.144   4.381   2.330
  475DOPC   C3B 5693   4.279   4.147   2.724
  475DOPC   C4B 5694   4.486   3.966   3.138
  476DOPC   NC3 5695  13.637   8.229   1.349
  476DOPC   PO4 5696  13.946   8.475   1.269
  476DOPC   GL1 5697  13.869   8.605   1.656
  476DOPC   GL2 5698  13.562   8.594   1.656
  476DOPC   C1A 5699  13.835   8.343   2.013
  476DOPC   D2A 5700  13.560   8.108   2.368
  476DOPC   C3A 5701  13.602   8.222   2.819
  476DOPC   C4A 5702  13.727   8.051   3.268
  476DOPC   C1B 5703  13.313   8.371   1.950
  476DOPC   D2B 5704  12.984   8.161   2.268
  476DOPC   C3B 5705  13.121   8.027   2.696
  476DOPC   C4B 5706  13.330   7.777   3.072
  477DOPC   NC3 5707   0.589   8.959   1.018
  477DOPC   PO4 5708   0.319   8.882   1.292
  477DOPC   GL1 5709   0.639   8.993   1.573
  477DOPC   GL2 5710   0.747   8.705   1.530
  477DOPC   C1A 5711   0.740   8.969   2.002
  477DOPC   D2A 5712   0.584   8.873   2.463
  477DOPC   C3A 5713   0.506   8.954   2.907
  477DOPC   C4A 5714   0.206   9.062   3.285
  477DOPC   C1B 5715   0.562   8.491   1.896
  477DOPC   D2B 5716   0.446   8.354   2.375
  477DOPC   C3B 5717   0.497   8.440   2.834
  477DOPC   C4B 5718   0.442   8.609   3.297
  478DOPC   NC3 5719  16.336   9.869   1.132
  478DOPC   PO4 5720  16.729   9.922   1.207
  478DOPC   GL1 5721  16.609   9.640   1.484
  478DOPC   GL2 5722  16.388   9.812   1.607
  478DOPC   C1A 5723  16.761   9.507   1.859
  478DOPC   D2A 5724  16.935   9.365   2.291
  478DOPC   C3A 5725  16.870   9.382   2.751
  478DOPC   C4A 5726  16.860   9.246   3.237
  478DOPC   C1B 5727  16.319   9.678   2.042
  478DOPC   D2B 5728  16.399   9.426   2.483
  478DOPC   C3B 5729  16.431   9.555   2.945
  478DOPC   C4B 5730  16.679   9.711   3.348
  479DOPC   NC3 5731   9.890   6.439   1.121
  479DOPC   PO4 5732  10.066   6.788   1.210
  479DOPC   GL1 5733   9.834   6.898   1.592
  479DOPC   GL2 5734   9.650   6.671   1.474
  479DOPC   C1A 5735   9.819   6.846   2.056
  479DOPC   D2A 5736  10.018   6.708   2.503
  479DOPC   C3A 5737   9.991   6.695   2.979
  479DOPC   C4A 5738   9.937   6.753   3.472
  479DOPC   C1B 5739   9.639   6.411   1.842
  479DOPC   D2B 5740   9.734   6.321   2.331
  479DOPC   C3B 5741   9.565   6.504   2.736
  479DOPC   C4B 5742   9.417   6.732   3.156
  480DOPC   NC3 5743  18.122   1.116   1.178
  480DOPC   PO4 5744  18.210   1.507   1.254
  480DOPC   GL1 5745  17.904   1.480   1.572
  480DOPC   GL2 5746  18.094   1.222   1.632
  480DOPC   C1A 5747  17.954   1.460   2.008
  480DOPC   D2A 5748  18.085   1.172   2.403
  480DOPC   C3A 5749  17.894   1.216   2.839
  480DOPC   C4A 5750  17.793   1.230   3.324
  480DOPC   C1B 5751  18.426   1.321   1.930
  480DOPC   D2B 5752  18.441   1.573   2.362
  480DOPC   C3B 5753  18.370   1.400   2.785
  480DOPC   C4B 5754  18.316   1.139   3.199
  481DOPC   NC3 5755  10.941   9.748   1.070
  481DOPC   PO4 5756  10.661   9.982   1.222
  481DOPC   GL1 5757  10.810   9.898   1.612
  481DOPC   GL2 5758  10.893   9.610   1.516
  481DOPC   C1A 5759  10.490   9.839   1.947
  481DOPC   D2A 5760  10.111   9.781   2.272
  481DOPC   C3A 5761  10.042   0.000   2.684
  481DOPC   C4A 5762   9.991   0.219   3.122
  481DOPC   C1B 5763  10.646   9.395   1.803
  481DOPC   D2B 5764  10.443   9.367   2.262
  481DOPC   C3B 5765  10.308   9.551   2.680
  481DOPC   C4B 5766   9.989   9.627   3.051
  482DOPC   NC3 5767   8.284   8.699   1.035
  482DOPC   PO4 5768   7.915   8.821   1.131
  482DOPC   GL1 5769   8.187   8.865   1.475
  482DOPC   GL2 5770   8.235   9.155   1.401
  482DOPC   C1A 5771   8.122   8.756   1.922
  482DOPC   D2A 5772   8.171   8.638   2.424
  482DOPC   C3A 5773   8.026   8.727   2.874
  482DOPC   C4A 5774   7.831   8.805   3.330
  482DOPC   C1B 5775   8.012   9.232   1.753
  482DOPC   D2B 5776   8.030   9.185   2.243
  482DOPC   C3B 5777   8.150   9.195   2.693
  482DOPC   C4B 5778   8.255   9.108   3.176
  483DOPC   NC3 5779   0.564   7.399   1.135
  483DOPC   PO4 5780   0.629   7.015   1.242
  483DOPC   GL1 5781   0.810   6.846   1.590
  483DOPC   GL2 5782   1.103   6.891   1.536
  483DOPC   C1A 5783   0.745   7.156   1.902
  483DOPC   D2A 5784   0.948   7.472   2.244
  483DOPC   C3A 5785   1.060   7.534   2.697
  483DOPC   C4A 5786   1.180   7.645   3.164
  483DOPC   C1B 5787   1.268   7.214   1.843
  483DOPC   D2B 5788   1.471   7.563   2.184
  483DOPC   C3B 5789   1.579   7.546   2.657
  483DOPC   C4B 5790   1.559   7.271   3.083
  484DOPC   NC3 5791   4.529   5.267   1.098
  484DOPC   PO4 5792   4.687   5.591   1.281
  484DOPC   GL1 5793   4.430   5.497   1.607
  484DOPC   GL2 5794   4.457   5.202   1.561
  484DOPC   C1A 5795   4.301   5.621   2.023
  484DOPC   D2A 5796   4.379   5.778   2.503
  484DOPC   C3A 5797   4.334   5.555   2.929
  484DOPC   C4A 5798   4.247   5.325   3.377
  484DOPC   C1B 5799   4.333   5.101   1.970
  484DOPC   D2B 5800   4.328   5.261   2.448
  484DOPC   C3B 5801   4.299   5.023   2.854
  484DOPC   C4B 5802   4.057   4.854   3.256
  485DOPC   NC3 5803  10.937   2.113   1.218
  485DOPC   PO4 5804  11.120   1.772   1.284
  485DOPC   GL1 5805  11.297   1.959   1.592
  485DOPC   GL2 5806  11.316   2.238   1.476
  485DOPC   C1A 5807  11.163   2.030   1.993
  485DOPC   D2A 5808  11.056   2.189   2.446
  485DOPC   C3A 5809  10.920   2.176   2.899
  485DOPC   C4A 5810  10.806   2.084   3.373
  485DOPC   C1B 5811  11.444   2.420   1.880
  485DOPC   D2B 5812  11.474   2.501   2.385
  485DOPC   C3B 5813  11.417   2.254   2.794
  485DOPC   C4B 5814  11.297   2.043   3.244
  486DOPC   NC3 5815  14.685   6.687   1.067
  486DOPC   PO4 5816  14.992   6.887   1.249
  486DOPC   GL1 5817  14.996   6.833   1.707
  486DOPC   GL2 5818  15.284   6.743   1.684
  486DOPC   C1A 5819  14.878   6.799   2.159
  486DOPC   D2A 5820  14.775   6.802   2.657
  486DOPC   C3A 5821  14.762   6.632   3.112
  486DOPC   C4A 5822  14.850   6.353   3.534
  486DOPC   C1B 5823  15.572   6.848   2.019
  486DOPC   D2B 5824  15.600   7.125   2.433
  486DOPC   C3B 5825  15.476   6.939   2.852
  486DOPC   C4B 5826  15.273   6.757   3.273
  487DOPC   NC3 5827   3.819   7.178   1.122
  487DOPC   PO4 5828   4.118   7.437   1.180
  487DOPC   GL1 5829   3.998   7.296   1.599
  487DOPC   GL2 5830   3.747   7.472   1.517
  487DOPC   C1A 5831   4.009   7.300   2.068
  487DOPC   D2A 5832   4.043   7.397   2.584
  487DOPC   C3A 5833   3.901   7.476   3.045
  487DOPC   C4A 5834   3.590   7.517   3.439
  487DOPC   C1B 5835   3.534   7.604   1.889
  487DOPC   D2B 5836   3.604   7.436   2.354
  487DOPC   C3B 5837   3.509   7.276   2.794
  487DOPC   C4B 5838   3.313   7.134   3.234
  488DOPC   NC3 5839  17.667   6.900   1.042
  488DOPC   PO4 5840  17.428   7.181   1.198
  488DOPC   GL1 5841  17.321   7.110   1.613
  488DOPC   GL2 5842  17.039   7.103   1.529
  488DOPC   C1A 5843  17.408   7.036   2.045
  488DOPC   D2A 5844  17.685   6.865   2.419
  488DOPC   C3A 5845  17.557   6.738   2.852
  488DOPC   C4A 5846  17.244   6.753   3.241
  488DOPC   C1B 5847  16.986   6.802   1.857
  488DOPC   D2B 5848  17.225   6.576   2.244
  488DOPC   C3B 5849  17.102   6.501   2.694
  488DOPC   C4B 5850  16.964   6.315   3.138
  489DOPC   NC3 5851   9.387   7.972   1.085
  489DOPC   PO4 5852   9.781   8.027   1.137
  489DOPC   GL1 5853   9.795   8.018   1.569
  489DOPC   GL2 5854   9.475   8.116   1.549
  489DOPC   C1A 5855   9.993   7.856   1.947
  489DOPC   D2A 5856  10.128   7.851   2.447
  489DOPC   C3A 5857  10.102   8.179   2.814
  489DOPC   C4A 5858  10.034   8.585   3.117
  489DOPC   C1B 5859   9.213   8.134   1.926
  489DOPC   D2B 5860   9.006   8.049   2.384
  489DOPC   C3B 5861   9.185   8.067   2.814
  489DOPC   C4B 5862   9.442   8.123   3.236
  490DOPC   NC3 5863  18.458   9.436   1.097
  490DOPC   PO4 5864  18.769   9.277   1.303
  490DOPC   GL1 5865  18.714   9.450   1.702
  490DOPC   GL2 5866  18.506   9.648   1.584
  490DOPC   C1A 5867  18.740   9.517   2.156
  490DOPC   D2A 5868  18.768   9.623   2.652
  490DOPC   C3A 5869  18.782   9.401   3.078
  490DOPC   C4A 5870  18.734   9.301   3.571
  490DOPC   C1B 5871  18.361   9.889   1.947
  490DOPC   D2B 5872  18.213   0.095   2.386
  490DOPC   C3B 5873  18.404   9.969   2.795
  490DOPC   C4B 5874  18.663   9.884   3.222
  491DOPC   NC3 5875   7.551   9.555   1.282
  491DOPC   PO4 5876   7.287   9.810   1.133
  491DOPC   GL1 5877   7.207   9.858   1.540
  491DOPC   GL2 5878   7.116   9.556   1.498
  491DOPC   C1A 5879   7.411   9.833   1.948
  491DOPC   D2A 5880   7.596   9.902   2.407
  491DOPC   C3A 5881   7.366   9.748   2.791
  491DOPC   C4A 5882   7.120   9.728   3.227
  491DOPC   C1B 5883   7.096   9.424   1.892
  491DOPC   D2B 5884   7.148   9.403   2.388
  491DOPC   C3B 5885   6.992   9.390   2.841
  491DOPC   C4B 5886   6.891   9.285   3.328
  492DOPC   NC3 5887   0.508   2.768   1.040
  492DOPC   PO4 5888   0.214   2.813   1.315
  492DOPC   GL1 5889   0.350   3.098   1.631
  492DOPC   GL2 5890   0.623   2.945   1.601
  492DOPC   C1A 5891   0.300   2.947   2.032
  492DOPC   D2A 5892   0.336   2.558   2.345
  492DOPC   C3A 5893   0.337   2.573   2.813
  492DOPC   C4A 5894   0.330   2.605   3.295
  492DOPC   C1B 5895   0.729   2.621   1.917
  492DOPC   D2B 5896   0.794   2.342   2.349
  492DOPC   C3B 5897   0.793   2.330   2.827
  492DOPC   C4B 5898   0.808   2.412   3.318
  493DOPC   NC3 5899  10.596   4.886   1.232
  493DOPC   PO4 5900  10.365   4.789   1.541
  493DOPC   GL1 5901  10.427   5.117   1.837
  493DOPC   GL2 5902  10.637   5.264   1.668
  493DOPC   C1A 5903  10.516   5.063   2.279
  493DOPC   D2A 5904  10.640   4.846   2.713
  493DOPC   C3A 5905  10.451   4.668   3.101
  493DOPC   C4A 5906  10.265   4.622   3.551
  493DOPC   C1B 5907  10.881   5.346   2.052
  493DOPC   D2B 5908  10.826   5.459   2.546
  493DOPC   C3B 5909  10.585   5.358   2.938
  493DOPC   C4B 5910  10.491   5.117   3.362
  494DOPC   NC3 5911  17.356   4.071   1.272
  494DOPC   PO4 5912  17.570   3.867   1.537
  494DOPC   GL1 5913  17.290   4.100   1.755
  494DOPC   GL2 5914  17.068   3.911   1.661
  494DOPC   C1A 5915  17.472   4.053   2.161
  494DOPC   D2A 5916  17.796   3.732   2.363
  494DOPC   C3A 5917  17.911   3.877   2.789
  494DOPC   C4A 5918  17.757   4.147   3.172
  494DOPC   C1B 5919  16.954   3.898   2.082
  494DOPC   D2B 5920  16.732   3.897   2.536
  494DOPC   C3B 5921  16.962   3.973   2.939
  494DOPC   C4B 5922  17.253   4.234   3.265
  495DOPC   NC3 5923  18.149   0.360   0.998
  495DOPC   PO4 5924  17.954   0.643   1.200
  495DOPC   GL1 5925  18.196   0.804   1.538
  495DOPC   GL2 5926  18.253   0.499   1.576
  495DOPC   C1A 5927  18.188   0.864   1.972
  495DOPC   D2A 5928  18.197   0.638   2.423
  495DOPC   C3A 5929  18.172   0.756   2.882
  495DOPC   C4A 5930  18.016   0.752   3.356
  495DOPC   C1B 5931  18.064   0.359   1.961
  495DOPC   D2B 5932  17.746   0.305   2.359
  495DOPC   C3B 5933  17.938   0.306   2.791
  495DOPC   C4B 5934  18.266   0.307   3.168
  496DOPC   NC3 5935  17.931   8.772   1.005
  496DOPC   PO4 5936  18.095   9.098   1.157
  496DOPC   GL1 5937  18.347   9.228   1.510
  496DOPC   GL2 5938  18.105   9.437   1.498
  496DOPC   C1A 5939  18.315   9.375   1.922
  496DOPC   D2A 5940  18.256   9.587   2.368
  496DOPC   C3A 5941  18.306   9.454   2.809
  496DOPC   C4A 5942  18.312   9.338   3.276
  496DOPC   C1B 5943  17.850   9.546   1.871
  496DOPC   D2B 5944  17.735   9.749   2.320
  496DOPC   C3B 5945  17.926   9.789   2.743
  496DOPC   C4B 5946  18.136   9.807   3.200
  497DOPC   NC3 5947   2.448   5.745   0.938
  497DOPC   PO4 5948   2.119   5.829   1.152
  497DOPC   GL1 5949   2.211   5.564   1.471
  497DOPC   GL2 5950   2.507   5.632   1.418
  497DOPC   C1A 5951   2.301   5.500   1.888
  497DOPC   D2A 5952   2.531   5.547   2.329
  497DOPC   C3A 5953   2.575   5.477   2.793
  497DOPC   C4A 5954   2.799   5.380   3.218
  497DOPC   C1B 5955   2.791   5.548   1.768
  497DOPC   D2B 5956   3.040   5.631   2.204
  497DOPC   C3B 5957   3.032   5.684   2.683
  497DOPC   C4B 5958   3.046   5.840   3.164
  498DOPC   NC3 5959  12.651   8.950   1.221
  498DOPC   PO4 5960  12.254   8.985   1.301
  498DOPC   GL1 5961  12.291   8.796   1.705
  498DOPC   GL2 5962  12.579   8.935   1.686
  498DOPC   C1A 5963  12.258   8.792   2.168
  498DOPC   D2A 5964  12.326   8.853   2.675
  498DOPC   C3A 5965  12.365   8.700   3.125
  498DOPC   C4A 5966  12.429   8.510   3.589
  498DOPC   C1B 5967  12.712   8.991   2.110
  498DOPC   D2B 5968  12.925   8.894   2.562
  498DOPC   C3B 5969  12.836   8.882   3.030
  498DOPC   C4B 5970  12.775   8.908   3.529
  499DOPC   NC3 5971  13.312   7.361   1.070
  499DOPC   PO4 5972  13.031   7.201   1.316
  499DOPC   GL1 5973  13.170   7.237   1.710
  499DOPC   GL2 5974  13.467   7.236   1.587
  499DOPC   C1A 5975  13.233   7.409   2.115
  499DOPC   D2A 5976  13.354   7.565   2.585
  499DOPC   C3A 5977  13.310   7.246   2.933
  499DOPC   C4A 5978  13.275   6.793   3.136
  499DOPC   C1B 5979  13.726   7.363   1.939
  499DOPC   D2B 5980  13.850   7.668   2.321
  499DOPC   C3B 5981  13.797   7.751   2.781
  499DOPC   C4B 5982  13.719   7.464   3.177
  500DOPC   NC3 5983   5.777   7.173   1.007
  500DOPC   PO4 5984   5.645   7.540   1.106
  500DOPC   GL1 5985   5.874   7.359   1.470
  500DOPC   GL2 5986   5.907   7.651   1.540
  500DOPC   C1A 5987   5.861   7.235   1.908
  500DOPC   D2A 5988   5.914   7.166   2.407
  500DOPC   C3A 5989   5.738   7.157   2.843
  500DOPC   C4A 5990   5.545   7.397   3.228
  500DOPC   C1B 5991   5.858   7.767   1.975
  500DOPC   D2B 5992   5.929   7.685   2.464
  500DOPC   C3B 5993   5.621   7.664   2.796
  500DOPC   C4B 5994   5.208   7.736   3.043
  501DOPC   NC3 5995   4.205   1.308   1.401
  501DOPC   PO4 5996   4.587   1.222   1.503
  501DOPC   GL1 5997   4.588   1.126   1.907
  501DOPC   GL2 5998   4.423   0.887   1.785
  501DOPC   C1A 5999   4.467   1.157   2.341
  501DOPC   D2A 6000   4.285   1.167   2.816
  501DOPC   C3A 6001   4.370   1.344   3.258
  501DOPC   C4A 6002   4.555   1.619   3.637
  501DOPC   C1B 6003   4.082   0.990   2.041
  501DOPC   D2B 6004   3.827   1.146   2.446
  501DOPC   C3B 6005   3.821   0.926   2.860
  501DOPC   C4B 6006   3.963   0.632   3.226
  502DOPC   NC3 6007  14.393   1.464   1.145
  502DOPC   PO4 6008  14.750   1.315   1.255
  502DOPC   GL1 6009  14.635   1.223   1.653
  502DOPC   GL2 6010  14.354   1.146   1.526
  502DOPC   C1A 6011  14.545   1.481   2.012
  502DOPC   D2A 6012  14.461   1.706   2.447
  502DOPC   C3A 6013  14.510   1.511   2.876
  502DOPC   C4A 6014  14.609   1.277   3.315
  502DOPC   C1B 6015  14.102   1.209   1.885
  502DOPC   D2B 6016  14.025   1.426   2.333
  502DOPC   C3B 6017  14.016   1.339   2.805
  502DOPC   C4B 6018  14.170   1.037   3.176
  503DOPC   NC3 6019  19.179   4.862   1.260
  503DOPC   PO4 6020  19.104   5.213   1.448
  503DOPC   GL1 6021  19.135   4.923   1.763
  503DOPC   GL2 6022  18.851   4.839   1.662
  503DOPC   C1A 6023  19.084   5.101   2.169
  503DOPC   D2A 6024  19.113   5.333   2.614
  503DOPC   C3A 6025  19.153   5.311   3.078
  503DOPC   C4A 6026  19.253   4.988   3.448
  503DOPC   C1B 6027  18.609   4.993   2.018
  503DOPC   D2B 6028  18.515   5.142   2.493
  503DOPC   C3B 6029  18.678   5.126   2.943
  503DOPC   C4B 6030  18.789   5.184   3.435
  504DOPC   NC3 6031   5.824   5.683   1.213
  504DOPC   PO4 6032   5.449   5.725   1.356
  504DOPC   GL1 6033   5.623   5.501   1.675
  504DOPC   GL2 6034   5.834   5.747   1.695
  504DOPC   C1A 6035   5.619   5.499   2.115
  504DOPC   D2A 6036   5.818   5.588   2.572
  504DOPC   C3A 6037   5.667   5.445   3.002
  504DOPC   C4A 6038   5.483   5.245   3.419
  504DOPC   C1B 6039   5.881   5.938   2.119
  504DOPC   D2B 6040   5.932   6.106   2.607
  504DOPC   C3B 6041   5.845   5.947   3.037
  504DOPC   C4B 6042   5.471   5.815   3.335
  505DOPC   NC3 6043  18.848   7.509   1.045
  505DOPC   PO4 6044  19.187   7.610   1.217
  505DOPC   GL1 6045  19.011   7.667   1.608
  505DOPC   GL2 6046  18.958   7.364   1.662
  505DOPC   C1A 6047  18.873   7.774   2.012
  505DOPC   D2A 6048  18.714   7.600   2.453
  505DOPC   C3A 6049  18.681   7.597   2.919
  505DOPC   C4A 6050  19.052   7.653   3.240
  505DOPC   C1B 6051  18.908   7.255   2.128
  505DOPC   D2B 6052  19.001   7.225   2.651
  505DOPC   C3B 6053  18.926   7.157   3.133
  505DOPC   C4B 6054  18.850   7.005   3.621
  506DOPC   NC3 6055  14.495   8.015   1.103
  506DOPC   PO4 6056  14.747   7.759   1.288
  506DOPC   GL1 6057  14.828   7.936   1.662
  506DOPC   GL2 6058  14.613   8.163   1.623
  506DOPC   C1A 6059  14.635   7.760   2.016
  506DOPC   D2A 6060  14.364   7.667   2.417
  506DOPC   C3A 6061  14.483   7.814   2.831
  506DOPC   C4A 6062  14.617   7.971   3.277
  506DOPC   C1B 6063  14.309   8.150   1.982
  506DOPC   D2B 6064  14.086   8.120   2.449
  506DOPC   C3B 6065  14.118   8.172   2.922
  506DOPC   C4B 6066  14.189   8.228   3.415
  507DOPC   NC3 6067  19.351   2.071   1.182
  507DOPC   PO4 6068  19.228   1.862   1.501
  507DOPC   GL1 6069  19.382   2.208   1.665
  507DOPC   GL2 6070  19.661   2.127   1.543
  507DOPC   C1A 6071  19.370   2.179   2.112
  507DOPC   D2A 6072  19.242   2.121   2.602
  507DOPC   C3A 6073  19.473   2.133   3.017
  507DOPC   C4A 6074  19.924   2.306   3.140
  507DOPC   C1B 6075  19.777   1.900   1.911
  507DOPC   D2B 6076  19.711   1.761   2.392
  507DOPC   C3B 6077  19.896   1.838   2.814
  507DOPC   C4B 6078  19.967   1.814   3.295
  508DOPC   NC3 6079   7.849   0.397   1.255
  508DOPC   PO4 6080   7.665   0.069   1.406
  508DOPC   GL1 6081   7.886   0.042   1.798
  508DOPC   GL2 6082   7.718   0.251   1.916
  508DOPC   C1A 6083   8.240   0.004   2.094
  508DOPC   D2A 6084   8.462   0.011   2.555
  508DOPC   C3A 6085   8.214   0.042   2.966
  508DOPC   C4A 6086   7.860   9.995   3.306
  508DOPC   C1B 6087   7.913   0.329   2.326
  508DOPC   D2B 6088   8.256   0.479   2.687
  508DOPC   C3B 6089   8.259   0.613   3.150
  508DOPC   C4B 6090   8.232   0.699   3.647
  509DOPC   NC3 6091   5.902   7.957   0.925
  509DOPC   PO4 6092   5.870   8.047   1.306
  509DOPC   GL1 6093   5.638   8.356   1.500
  509DOPC   GL2 6094   5.908   8.497   1.569
  509DOPC   C1A 6095   5.603   8.213   1.916
  509DOPC   D2A 6096   5.823   8.204   2.371
  509DOPC   C3A 6097   5.746   8.151   2.841
  509DOPC   C4A 6098   5.784   7.877   3.263
  509DOPC   C1B 6099   6.125   8.269   1.901
  509DOPC   D2B 6100   6.293   7.957   2.256
  509DOPC   C3B 6101   6.236   8.112   2.696
  509DOPC   C4B 6102   6.141   8.304   3.148
  510DOPC   NC3 6103   5.863   3.586   1.017
  510DOPC   PO4 6104   6.075   3.393   1.297
  510DOPC   GL1 6105   5.812   3.429   1.643
  510DOPC   GL2 6106   5.872   3.741   1.653
  510DOPC   C1A 6107   5.923   3.301   2.066
  510DOPC   D2A 6108   6.171   3.275   2.505
  510DOPC   C3A 6109   6.011   3.263   2.945
  510DOPC   C4A 6110   5.823   3.262   3.411
  510DOPC   C1B 6111   5.771   3.792   2.095
  510DOPC   D2B 6112   5.786   3.645   2.591
  510DOPC   C3B 6113   5.779   3.683   3.072
  510DOPC   C4B 6114   5.835   3.769   3.562
  511DOPC   NC3 6115   7.680   4.702   1.136
  511DOPC   PO4 6116   7.437   5.022   1.149
  511DOPC   GL1 6117   7.287   5.113   1.505
  511DOPC   GL2 6118   7.033   4.946   1.526
  511DOPC   C1A 6119   7.405   5.199   1.914
  511DOPC   D2A 6120   7.451   5.369   2.379
  511DOPC   C3A 6121   7.482   5.081   2.749
  511DOPC   C4A 6122   7.662   4.900   3.176
  511DOPC   C1B 6123   6.950   4.915   1.979
  511DOPC   D2B 6124   7.017   4.823   2.486
  511DOPC   C3B 6125   7.009   4.949   2.952
  511DOPC   C4B 6126   7.019   5.369   3.218
  512DOPC   NC3 6127  15.003   3.030   0.994
  512DOPC   PO4 6128  15.276   2.890   1.255
  512DOPC   GL1 6129  15.045   2.658   1.500
  512DOPC   GL2 6130  15.208   2.480   1.664
  512DOPC   C1A 6131  14.894   2.891   1.854
  512DOPC   D2A 6132  14.908   2.948   2.353
  512DOPC   C3A 6133  14.871   3.087   2.798
  512DOPC   C4A 6134  15.025   3.214   3.256
  512DOPC   C1B 6135  15.059   2.480   2.112
  512DOPC   D2B 6136  14.971   2.489   2.617
  512DOPC   C3B 6137  15.200   2.727   2.957
  512DOPC   C4B 6138  15.475   2.944   3.306
  513DOPC   NC3 6139   1.090   8.211   1.163
  513DOPC   PO4 6140   1.400   8.417   1.027
  513DOPC   GL1 6141   1.647   8.488   1.387
  513DOPC   GL2 6142   1.461   8.226   1.465
  513DOPC   C1A 6143   1.607   8.503   1.828
  513DOPC   D2A 6144   1.426   8.432   2.279
  513DOPC   C3A 6145   1.518   8.479   2.736
  513DOPC   C4A 6146   1.667   8.528   3.204
  513DOPC   C1B 6147   1.323   8.075   1.877
  513DOPC   D2B 6148   1.165   7.962   2.347
  513DOPC   C3B 6149   1.302   7.994   2.797
  513DOPC   C4B 6150   1.427   8.083   3.276
  514DOPC   NC3 6151   1.803   8.710   0.955
  514DOPC   PO4 6152   1.520   8.907   1.151
  514DOPC   GL1 6153   1.766   9.060   1.480
  514DOPC   GL2 6154   1.977   8.832   1.391
  514DOPC   C1A 6155   1.767   8.980   1.920
  514DOPC   D2A 6156   1.758   8.823   2.399
  514DOPC   C3A 6157   1.716   8.967   2.846
  514DOPC   C4A 6158   1.691   9.295   3.223
  514DOPC   C1B 6159   2.206   8.777   1.779
  514DOPC   D2B 6160   2.284   8.785   2.299
  514DOPC   C3B 6161   2.237   8.884   2.776
  514DOPC   C4B 6162   2.031   8.890   3.243
  515DOPC   NC3 6163  17.367   5.045   1.119
  515DOPC   PO4 6164  17.007   5.144   1.263
  515DOPC   GL1 6165  17.079   5.145   1.693
  515DOPC   GL2 6166  17.379   5.038   1.639
  515DOPC   C1A 6167  17.017   5.169   2.152
  515DOPC   D2A 6168  16.967   5.322   2.641
  515DOPC   C3A 6169  16.923   5.146   3.092
  515DOPC   C4A 6170  17.006   4.756   3.413
  515DOPC   C1B 6171  17.563   4.960   2.062
  515DOPC   D2B 6172  17.867   4.846   2.462
  515DOPC   C3B 6173  17.686   4.843   2.900
  515DOPC   C4B 6174  17.421   5.038   3.276
  516DOPC   NC3 6175  15.724   5.083   1.071
  516DOPC   PO4 6176  15.457   4.958   1.335
  516DOPC   GL1 6177  15.313   5.159   1.695
  516DOPC   GL2 6178  15.017   5.093   1.605
  516DOPC   C1A 6179  15.308   5.049   2.137
  516DOPC   D2A 6180  15.303   4.975   2.631
  516DOPC   C3A 6181  15.374   5.121   3.071
  516DOPC   C4A 6182  15.313   5.128   3.563
  516DOPC   C1B 6183  14.822   4.962   1.994
  516DOPC   D2B 6184  14.751   4.931   2.492
  516DOPC   C3B 6185  14.869   5.060   2.928
  516DOPC   C4B 6186  14.869   5.283   3.376
  517DOPC   NC3 6187   8.995   0.681   1.088
  517DOPC   PO4 6188   8.727   0.977   1.140
  517DOPC   GL1 6189   8.605   1.163   1.509
  517DOPC   GL2 6190   8.821   1.320   1.585
  517DOPC   C1A 6191   8.527   1.061   1.931
  517DOPC   D2A 6192   8.703   1.061   2.408
  517DOPC   C3A 6193   8.712   0.994   2.881
  517DOPC   C4A 6194   8.715   1.003   3.371
  517DOPC   C1B 6195   8.883   1.411   2.025
  517DOPC   D2B 6196   9.015   1.562   2.482
  517DOPC   C3B 6197   9.070   1.372   2.894
  517DOPC   C4B 6198   9.218   1.194   3.329
  518DOPC   NC3 6199  15.112   5.756   1.129
  518DOPC   PO4 6200  14.766   5.944   1.237
  518DOPC   GL1 6201  14.664   5.738   1.588
  518DOPC   GL2 6202  14.888   5.525   1.532
  518DOPC   C1A 6203  14.674   5.820   2.025
  518DOPC   D2A 6204  14.757   5.822   2.522
  518DOPC   C3A 6205  14.686   5.840   2.990
  518DOPC   C4A 6206  14.736   5.793   3.485
  518DOPC   C1B 6207  15.019   5.441   1.957
  518DOPC   D2B 6208  15.059   5.384   2.467
  518DOPC   C3B 6209  15.076   5.518   2.920
  518DOPC   C4B 6210  15.281   5.590   3.368
  519DOPC   NC3 6211  13.805   4.355   1.145
  519DOPC   PO4 6212  13.941   3.991   1.245
  519DOPC   GL1 6213  13.848   4.082   1.692
  519DOPC   GL2 6214  13.659   4.288   1.574
  519DOPC   C1A 6215  13.693   4.009   2.123
  519DOPC   D2A 6216  13.729   3.860   2.608
  519DOPC   C3A 6217  13.864   4.071   3.017
  519DOPC   C4A 6218  13.792   4.434   3.360
  519DOPC   C1B 6219  13.451   4.451   1.902
  519DOPC   D2B 6220  13.407   4.505   2.399
  519DOPC   C3B 6221  13.522   4.424   2.849
  519DOPC   C4B 6222  13.358   4.089   3.172
  520DOPC   NC3 6223   8.479   6.639   1.071
  520DOPC   PO4 6224   8.266   6.447   1.355
  520DOPC   GL1 6225   8.124   6.588   1.703
  520DOPC   GL2 6226   7.844   6.654   1.718
  520DOPC   C1A 6227   8.169   6.377   2.078
  520DOPC   D2A 6228   8.170   6.101   2.485
  520DOPC   C3A 6229   8.226   6.259   2.917
  520DOPC   C4A 6230   8.224   6.548   3.311
  520DOPC   C1B 6231   7.700   6.537   2.139
  520DOPC   D2B 6232   7.656   6.254   2.571
  520DOPC   C3B 6233   7.726   6.392   3.027
  520DOPC   C4B 6234   7.741   6.639   3.467
  521DOPC   NC3 6235  11.480   4.287   1.330
  521DOPC   PO4 6236  11.578   3.906   1.269
  521DOPC   GL1 6237  11.351   3.738   1.587
  521DOPC   GL2 6238  11.110   3.895   1.456
  521DOPC   C1A 6239  11.397   3.854   2.024
  521DOPC   D2A 6240  11.410   3.952   2.530
  521DOPC   C3A 6241  11.322   4.114   2.972
  521DOPC   C4A 6242  11.181   4.227   3.442
  521DOPC   C1B 6243  11.037   4.157   1.787
  521DOPC   D2B 6244  10.980   4.052   2.278
  521DOPC   C3B 6245  10.987   4.350   2.641
  521DOPC   C4B 6246  10.975   4.596   3.075
  522DOPC   NC3 6247  11.155   5.673   1.001
  522DOPC   PO4 6248  11.135   6.047   1.120
  522DOPC   GL1 6249  11.265   5.953   1.499
  522DOPC   GL2 6250  11.566   5.966   1.445
  522DOPC   C1A 6251  11.149   6.115   1.905
  522DOPC   D2A 6252  11.166   6.266   2.384
  522DOPC   C3A 6253  11.182   5.935   2.723
  522DOPC   C4A 6254  11.204   5.601   3.088
  522DOPC   C1B 6255  11.649   5.994   1.871
  522DOPC   D2B 6256  11.599   5.941   2.370
  522DOPC   C3B 6257  11.632   6.177   2.776
  522DOPC   C4B 6258  11.635   6.396   3.220
  523DOPC   NC3 6259   7.430   1.133   1.144
  523DOPC   PO4 6260   7.068   1.308   1.186
  523DOPC   GL1 6261   7.043   1.320   1.614
  523DOPC   GL2 6262   7.313   1.164   1.610
  523DOPC   C1A 6263   6.993   1.475   2.030
  523DOPC   D2A 6264   6.956   1.639   2.504
  523DOPC   C3A 6265   7.013   1.479   2.952
  523DOPC   C4A 6266   6.996   1.414   3.454
  523DOPC   C1B 6267   7.462   1.262   2.021
  523DOPC   D2B 6268   7.317   1.275   2.507
  523DOPC   C3B 6269   7.507   1.238   2.938
  523DOPC   C4B 6270   7.818   0.977   3.235
  524DOPC   NC3 6271  19.432   6.371   1.169
  524DOPC   PO4 6272  19.726   6.633   1.236
  524DOPC   GL1 6273  19.756   6.429   1.571
  524DOPC   GL2 6274  19.520   6.278   1.645
  524DOPC   C1A 6275  19.833   6.715   1.897
  524DOPC   D2A 6276   0.024   6.614   2.344
  524DOPC   C3A 6277  19.973   6.706   2.797
  524DOPC   C4A 6278  19.643   6.774   3.150
  524DOPC   C1B 6279  19.514   6.363   2.098
  524DOPC   D2B 6280  19.539   6.520   2.583
  524DOPC   C3B 6281  19.415   6.324   2.998
  524DOPC   C4B 6282  19.093   6.266   3.372
  525DOPC   NC3 6283  15.251   1.143   1.199
  525DOPC   PO4 6284  15.208   1.495   1.013
  525DOPC   GL1 6285  15.358   1.557   1.432
  525DOPC   GL2 6286  15.085   1.476   1.527
  525DOPC   C1A 6287  15.423   1.662   1.841
  525DOPC   D2A 6288  15.243   1.675   2.311
  525DOPC   C3A 6289  15.205   1.605   2.775
  525DOPC   C4A 6290  15.096   1.482   3.243
  525DOPC   C1B 6291  15.027   1.347   1.957
  525DOPC   D2B 6292  14.850   1.363   2.443
  525DOPC   C3B 6293  14.908   1.170   2.882
  525DOPC   C4B 6294  15.053   0.981   3.333
  526DOPC   NC3 6295   8.248   1.122   1.208
  526DOPC   PO4 6296   8.310   1.520   1.171
  526DOPC   GL1 6297   8.335   1.808   1.471
  526DOPC   GL2 6298   8.041   1.797   1.560
  526DOPC   C1A 6299   8.465   1.615   1.837
  526DOPC   D2A 6300   8.332   1.414   2.281
  526DOPC   C3A 6301   8.516   1.447   2.716
  526DOPC   C4A 6302   8.676   1.512   3.184
  526DOPC   C1B 6303   7.950   1.551   1.924
  526DOPC   D2B 6304   7.799   1.482   2.397
  526DOPC   C3B 6305   7.995   1.382   2.809
  526DOPC   C4B 6306   8.290   1.178   3.146
  527DOPC   NC3 6307  19.657   7.489   1.088
  527DOPC   PO4 6308  19.619   7.146   1.279
  527DOPC   GL1 6309  19.403   7.408   1.562
  527DOPC   GL2 6310  19.679   7.509   1.570
  527DOPC   C1A 6311  19.326   7.509   1.977
  527DOPC   D2A 6312  19.463   7.459   2.456
  527DOPC   C3A 6313  19.479   7.592   2.912
  527DOPC   C4A 6314  19.514   7.702   3.393
  527DOPC   C1B 6315  19.762   7.248   1.932
  527DOPC   D2B 6316  19.655   6.975   2.352
  527DOPC   C3B 6317  19.679   7.132   2.793
  527DOPC   C4B 6318  19.783   7.268   3.269
  528DOPC   NC3 6319   7.392   8.844   1.144
  528DOPC   PO4 6320   7.159   9.169   1.223
  528DOPC   GL1 6321   7.414   9.197   1.580
  528DOPC   GL2 6322   7.267   8.925   1.635
  528DOPC   C1A 6323   7.555   9.270   2.004
  528DOPC   D2A 6324   7.644   9.395   2.486
  528DOPC   C3A 6325   7.499   9.247   2.904
  528DOPC   C4A 6326   7.385   9.088   3.350
  528DOPC   C1B 6327   7.153   8.944   2.067
  528DOPC   D2B 6328   7.234   8.939   2.568
  528DOPC   C3B 6329   7.047   8.910   3.002
  528DOPC   C4B 6330   6.995   8.780   3.482
  529DOPC   NC3 6331  16.977   7.413   1.160
  529DOPC   PO4 6332  16.825   7.732   1.346
  529DOPC   GL1 6333  17.119   7.713   1.664
  529DOPC   GL2 6334  17.281   7.526   1.508
  529DOPC   C1A 6335  17.226   7.640   2.104
  529DOPC   D2A 6336  17.438   7.553   2.557
  529DOPC   C3A 6337  17.527   7.641   3.018
  529DOPC   C4A 6338  17.457   7.669   3.517
  529DOPC   C1B 6339  17.585   7.437   1.825
  529DOPC   D2B 6340  17.831   7.351   2.288
  529DOPC   C3B 6341  17.794   7.244   2.760
  529DOPC   C4B 6342  17.571   7.158   3.202
  530DOPC   NC3 6343   2.156   0.481   0.889
  530DOPC   PO4 6344   2.010   0.123   1.009
  530DOPC   GL1 6345   1.893   0.091   1.426
  530DOPC   GL2 6346   1.896   0.409   1.436
  530DOPC   C1A 6347   1.977   0.103   1.859
  530DOPC   D2A 6348   1.835   0.268   2.310
  530DOPC   C3A 6349   1.964   0.221   2.755
  530DOPC   C4A 6350   1.943   0.263   3.242
  530DOPC   C1B 6351   1.742   0.589   1.833
  530DOPC   D2B 6352   1.581   0.728   2.300
  530DOPC   C3B 6353   1.755   0.696   2.739
  530DOPC   C4B 6354   2.131   0.725   3.074
  531DOPC   NC3 6355  15.220   4.516   1.322
  531DOPC   PO4 6356  15.585   4.386   1.199
  531DOPC   GL1 6357  15.583   4.326   1.611
  531DOPC   GL2 6358  15.359   4.101   1.568
  531DOPC   C1A 6359  15.412   4.559   1.954
  531DOPC   D2A 6360  15.110   4.585   2.356
  531DOPC   C3A 6361  15.053   4.573   2.830
  531DOPC   C4A 6362  15.191   4.679   3.295
  531DOPC   C1B 6363  15.138   3.986   1.950
  531DOPC   D2B 6364  14.847   3.917   2.367
  531DOPC   C3B 6365  14.826   4.077   2.818
  531DOPC   C4B 6366  14.799   4.295   3.260
  532DOPC   NC3 6367   1.890   7.557   1.123
  532DOPC   PO4 6368   2.170   7.840   1.178
  532DOPC   GL1 6369   2.214   7.893   1.631
  532DOPC   GL2 6370   2.091   7.624   1.685
  532DOPC   C1A 6371   2.289   8.008   2.068
  532DOPC   D2A 6372   2.191   7.918   2.560
  532DOPC   C3A 6373   2.122   7.706   2.982
  532DOPC   C4A 6374   2.111   7.569   3.451
  532DOPC   C1B 6375   2.104   7.532   2.154
  532DOPC   D2B 6376   2.241   7.362   2.627
  532DOPC   C3B 6377   2.117   7.189   3.071
  532DOPC   C4B 6378   1.861   7.130   3.507
  533DOPC   NC3 6379   1.682   3.598   1.106
  533DOPC   PO4 6380   1.536   3.270   1.297
  533DOPC   GL1 6381   1.782   3.294   1.661
  533DOPC   GL2 6382   1.759   3.597   1.567
  533DOPC   C1A 6383   1.867   3.374   2.097
  533DOPC   D2A 6384   1.889   3.662   2.519
  533DOPC   C3A 6385   2.015   3.623   2.975
  533DOPC   C4A 6386   2.138   3.652   3.463
  533DOPC   C1B 6387   1.532   3.691   1.915
  533DOPC   D2B 6388   1.366   3.709   2.391
  533DOPC   C3B 6389   1.482   3.696   2.863
  533DOPC   C4B 6390   1.661   3.779   3.321
  534DOPC   NC3 6391  19.294   6.837   1.050
  534DOPC   PO4 6392  19.090   7.096   1.285
  534DOPC   GL1 6393  19.342   6.962   1.581
  534DOPC   GL2 6394  19.342   6.680   1.517
  534DOPC   C1A 6395  19.319   6.983   1.988
  534DOPC   D2A 6396  19.140   6.792   2.403
  534DOPC   C3A 6397  19.171   6.770   2.870
  534DOPC   C4A 6398  19.190   6.756   3.360
  534DOPC   C1B 6399  19.079   6.552   1.856
  534DOPC   D2B 6400  18.727   6.539   2.231
  534DOPC   C3B 6401  18.676   6.708   2.678
  534DOPC   C4B 6402  18.696   6.696   3.177
  535DOPC   NC3 6403  19.547   8.543   1.012
  535DOPC   PO4 6404  19.510   8.799   1.307
  535DOPC   GL1 6405  19.500   8.431   1.548
  535DOPC   GL2 6406  19.743   8.329   1.409
  535DOPC   C1A 6407  19.554   8.406   1.989
  535DOPC   D2A 6408  19.634   8.455   2.486
  535DOPC   C3A 6409  19.515   8.794   2.807
  535DOPC   C4A 6410  19.222   9.056   3.117
  535DOPC   C1B 6411   0.024   8.475   1.734
  535DOPC   D2B 6412   0.173   8.719   2.150
  535DOPC   C3B 6413   0.098   8.708   2.617
  535DOPC   C4B 6414  19.973   8.613   3.088
  536DOPC   NC3 6415  11.291   6.505   1.062
  536DOPC   PO4 6416  11.613   6.422   1.283
  536DOPC   GL1 6417  11.463   6.349   1.653
  536DOPC   GL2 6418  11.174   6.406   1.544
  536DOPC   C1A 6419  11.568   6.451   2.084
  536DOPC   D2A 6420  11.549   6.616   2.556
  536DOPC   C3A 6421  11.218   6.498   2.865
  536DOPC   C4A 6422  10.841   6.360   3.145
  536DOPC   C1B 6423  11.153   6.703   1.886
  536DOPC   D2B 6424  11.259   7.099   2.200
  536DOPC   C3B 6425  11.323   7.045   2.663
  536DOPC   C4B 6426  11.482   6.885   3.097
  537DOPC   NC3 6427  19.658   0.427   1.087
  537DOPC   PO4 6428  19.365   0.706   1.085
  537DOPC   GL1 6429  19.312   0.804   1.509
  537DOPC   GL2 6430  19.564   0.646   1.596
  537DOPC   C1A 6431  19.117   0.589   1.854
  537DOPC   D2A 6432  19.157   0.430   2.342
  537DOPC   C3A 6433  19.255   0.500   2.818
  537DOPC   C4A 6434  19.412   0.642   3.287
  537DOPC   C1B 6435  19.597   0.536   2.050
  537DOPC   D2B 6436  19.654   0.354   2.531
  537DOPC   C3B 6437  19.716   0.335   3.010
  537DOPC   C4B 6438  19.698   0.277   3.521
  538DOPC   NC3 6439   1.514   9.391   1.229
  538DOPC   PO4 6440   1.596   9.683   1.492
  538DOPC   GL1 6441   1.601   9.376   1.787
  538DOPC   GL2 6442   1.352   9.255   1.652
  538DOPC   C1A 6443   1.552   9.344   2.239
  538DOPC   D2A 6444   1.505   9.419   2.737
  538DOPC   C3A 6445   1.311   9.723   3.047
  538DOPC   C4A 6446   1.024   0.106   3.204
  538DOPC   C1B 6447   1.086   9.435   1.951
  538DOPC   D2B 6448   0.931   9.742   2.323
  538DOPC   C3B 6449   0.891   9.766   2.786
  538DOPC   C4B 6450   0.860   9.632   3.266
  539DOPC   NC3 6451   9.718   1.539   0.951
  539DOPC   PO4 6452   9.638   1.766   1.272
  539DOPC   GL1 6453   9.642   1.576   1.667
  539DOPC   GL2 6454   9.437   1.791   1.772
  539DOPC   C1A 6455   9.880   1.547   2.041
  539DOPC   D2A 6456  10.041   1.675   2.497
  539DOPC   C3A 6457   9.778   1.909   2.818
  539DOPC   C4A 6458   9.556   1.963   3.265
  539DOPC   C1B 6459   9.524   1.971   2.213
  539DOPC   D2B 6460   9.507   2.314   2.614
  539DOPC   C3B 6461   9.594   2.433   3.073
  539DOPC   C4B 6462   9.708   2.350   3.560
  540DOPC   NC3 6463   8.154   3.348   1.213
  540DOPC   PO4 6464   7.792   3.320   1.378
  540DOPC   GL1 6465   7.971   3.393   1.737
  540DOPC   GL2 6466   8.109   3.655   1.637
  540DOPC   C1A 6467   7.977   3.321   2.172
  540DOPC   D2A 6468   7.822   3.251   2.647
  540DOPC   C3A 6469   7.661   3.434   3.055
  540DOPC   C4A 6470   7.655   3.442   3.549
  540DOPC   C1B 6471   8.219   3.778   2.054
  540DOPC   D2B 6472   8.005   3.726   2.493
  540DOPC   C3B 6473   8.105   3.664   2.939
  540DOPC   C4B 6474   8.139   3.611   3.429
  541DOPC   NC3 6475   9.808   7.194   1.068
  541DOPC   PO4 6476   9.537   7.489   1.013
  541DOPC   GL1 6477   9.606   7.658   1.397
  541DOPC   GL2 6478   9.720   7.381   1.487
  541DOPC   C1A 6479   9.504   7.720   1.819
  541DOPC   D2A 6480   9.644   7.662   2.303
  541DOPC   C3A 6481   9.531   7.658   2.763
  541DOPC   C4A 6482   9.405   7.593   3.241
  541DOPC   C1B 6483   9.828   7.333   1.923
  541DOPC   D2B 6484   9.993   7.249   2.398
  541DOPC   C3B 6485   9.986   7.363   2.862
  541DOPC   C4B 6486   9.851   7.330   3.345
  542DOPC   NC3 6487   7.438   4.224   1.085
  542DOPC   PO4 6488   7.841   4.226   1.074
  542DOPC   GL1 6489   7.760   4.351   1.479
  542DOPC   GL2 6490   7.550   4.114   1.514
  542DOPC   C1A 6491   7.686   4.537   1.883
  542DOPC   D2A 6492   7.526   4.820   2.280
  542DOPC   C3A 6493   7.596   4.583   2.687
  542DOPC   C4A 6494   7.561   4.395   3.147
  542DOPC   C1B 6495   7.381   4.107   1.929
  542DOPC   D2B 6496   7.261   4.361   2.348
  542DOPC   C3B 6497   7.156   4.316   2.806
  542DOPC   C4B 6498   7.125   4.175   3.281
  543DOPC   NC3 6499   2.517   4.534   1.168
  543DOPC   PO4 6500   2.787   4.821   1.211
  543DOPC   GL1 6501   3.005   4.697   1.589
  543DOPC   GL2 6502   2.919   4.429   1.469
  543DOPC   C1A 6503   2.878   4.695   2.028
  543DOPC   D2A 6504   2.767   4.719   2.525
  543DOPC   C3A 6505   3.006   4.680   2.950
  543DOPC   C4A 6506   3.103   4.629   3.447
  543DOPC   C1B 6507   2.635   4.314   1.790
  543DOPC   D2B 6508   2.550   4.217   2.285
  543DOPC   C3B 6509   2.561   4.314   2.759
  543DOPC   C4B 6510   2.680   4.416   3.230
  544DOPC   NC3 6511   0.227   7.849   1.129
  544DOPC   PO4 6512  19.876   7.878   1.327
  544DOPC   GL1 6513   0.053   7.693   1.693
  544DOPC   GL2 6514   0.267   7.903   1.621
  544DOPC   C1A 6515  19.966   7.673   2.134
  544DOPC   D2A 6516  19.960   7.629   2.640
  544DOPC   C3A 6517   0.280   7.701   2.991
  544DOPC   C4A 6518   0.513   7.839   3.411
  544DOPC   C1B 6519   0.408   7.969   2.029
  544DOPC   D2B 6520   0.434   7.860   2.525
  544DOPC   C3B 6521   0.758   7.974   2.861
  544DOPC   C4B 6522   1.035   8.356   3.048
  545DOPC   NC3 6523   6.078   2.235   0.949
  545DOPC   PO4 6524   6.297   1.925   1.092
  545DOPC   GL1 6525   6.103   2.115   1.427
  545DOPC   GL2 6526   6.067   1.830   1.567
  545DOPC   C1A 6527   6.008   2.310   1.803
  545DOPC   D2A 6528   6.057   2.277   2.286
  545DOPC   C3A 6529   6.002   2.311   2.736
  545DOPC   C4A 6530   5.999   2.272   3.230
  545DOPC   C1B 6531   5.819   1.829   1.966
  545DOPC   D2B 6532   5.620   1.929   2.425
  545DOPC   C3B 6533   5.650   1.968   2.899
  545DOPC   C4B 6534   5.615   1.950   3.395
  546DOPC   NC3 6535  15.963   4.733   1.340
  546DOPC   PO4 6536  16.266   4.984   1.255
  546DOPC   GL1 6537  16.209   5.248   1.562
  546DOPC   GL2 6538  15.890   5.198   1.502
  546DOPC   C1A 6539  16.227   5.148   1.998
  546DOPC   D2A 6540  16.184   5.042   2.501
  546DOPC   C3A 6541  16.091   5.106   2.973
  546DOPC   C4A 6542  15.794   5.344   3.316
  546DOPC   C1B 6543  15.756   5.029   1.899
  546DOPC   D2B 6544  15.725   4.810   2.353
  546DOPC   C3B 6545  15.731   4.778   2.828
  546DOPC   C4B 6546  15.708   4.810   3.323
  547DOPC   NC3 6547   1.205   1.253   1.142
  547DOPC   PO4 6548   1.537   1.138   1.343
  547DOPC   GL1 6549   1.375   0.990   1.693
  547DOPC   GL2 6550   1.108   1.148   1.633
  547DOPC   C1A 6551   1.367   1.135   2.103
  547DOPC   D2A 6552   1.145   1.093   2.556
  547DOPC   C3A 6553   1.331   1.054   2.991
  547DOPC   C4A 6554   1.631   0.733   3.239
  547DOPC   C1B 6555   0.853   1.182   2.014
  547DOPC   D2B 6556   0.697   1.344   2.481
  547DOPC   C3B 6557   0.839   1.308   2.943
  547DOPC   C4B 6558   1.056   1.317   3.397
  548DOPC   NC3 6559   6.672   8.932   1.117
  548DOPC   PO4 6560   6.447   9.236   1.263
  548DOPC   GL1 6561   6.716   9.311   1.623
  548DOPC   GL2 6562   6.832   9.024   1.563
  548DOPC   C1A 6563   6.679   9.196   2.067
  548DOPC   D2A 6564   6.720   8.984   2.527
  548DOPC   C3A 6565   6.566   9.106   2.961
  548DOPC   C4A 6566   6.357   9.307   3.376
  548DOPC   C1B 6567   6.695   8.720   1.893
  548DOPC   D2B 6568   6.440   8.559   2.316
  548DOPC   C3B 6569   6.367   8.647   2.783
  548DOPC   C4B 6570   6.247   8.804   3.246
  549DOPC   NC3 6571  12.223   7.575   1.093
  549DOPC   PO4 6572  12.190   7.907   1.318
  549DOPC   GL1 6573  12.367   7.680   1.618
  549DOPC   GL2 6574  12.206   7.421   1.540
  549DOPC   C1A 6575  12.223   7.684   2.024
  549DOPC   D2A 6576  12.025   7.428   2.401
  549DOPC   C3A 6577  12.086   7.532   2.849
  549DOPC   C4A 6578  12.221   7.460   3.317
  549DOPC   C1B 6579  11.967   7.243   1.882
  549DOPC   D2B 6580  11.777   6.985   2.274
  549DOPC   C3B 6581  11.845   7.059   2.737
  549DOPC   C4B 6582  11.945   7.051   3.223
  550DOPC   NC3 6583   7.928   5.184   1.077
  550DOPC   PO4 6584   7.816   5.550   1.220
  550DOPC   GL1 6585   7.656   5.459   1.614
  550DOPC   GL2 6586   7.733   5.155   1.545
  550DOPC   C1A 6587   7.821   5.484   2.043
  550DOPC   D2A 6588   7.914   5.198   2.462
  550DOPC   C3A 6589   7.899   5.323   2.923
  550DOPC   C4A 6590   7.989   5.457   3.395
  550DOPC   C1B 6591   7.904   4.982   1.940
  550DOPC   D2B 6592   8.016   4.683   2.348
  550DOPC   C3B 6593   8.045   4.813   2.805
  550DOPC   C4B 6594   8.173   4.995   3.244
  551DOPC   NC3 6595   2.349   9.993   1.358
  551DOPC   PO4 6596   2.353   0.396   1.331
  551DOPC   GL1 6597   2.280   0.714   1.623
  551DOPC   GL2 6598   2.599   0.753   1.588
  551DOPC   C1A 6599   2.231   0.525   2.028
  551DOPC   D2A 6600   2.337   0.136   2.345
  551DOPC   C3A 6601   2.488   0.259   2.776
  551DOPC   C4A 6602   2.565   0.483   3.215
  551DOPC   C1B 6603   2.741   0.493   1.931
  551DOPC   D2B 6604   2.850   0.308   2.391
  551DOPC   C3B 6605   2.943   0.496   2.820
  551DOPC   C4B 6606   2.988   0.776   3.235
  552DOPC   NC3 6607   1.892   6.593   1.125
  552DOPC   PO4 6608   1.525   6.714   1.231
  552DOPC   GL1 6609   1.468   6.476   1.594
  552DOPC   GL2 6610   1.773   6.532   1.635
  552DOPC   C1A 6611   1.437   6.485   2.034
  552DOPC   D2A 6612   1.334   6.534   2.532
  552DOPC   C3A 6613   1.629   6.608   2.905
  552DOPC   C4A 6614   1.946   6.690   3.284
  552DOPC   C1B 6615   1.933   6.664   2.043
  552DOPC   D2B 6616   2.179   6.868   2.448
  552DOPC   C3B 6617   2.225   6.652   2.866
  552DOPC   C4B 6618   2.228   6.259   3.188
  553DOPC   NC3 6619  18.708   4.201   1.126
  553DOPC   PO4 6620  19.068   4.342   1.224
  553DOPC   GL1 6621  18.920   4.390   1.619
  553DOPC   GL2 6622  18.833   4.092   1.580
  553DOPC   C1A 6623  18.923   4.577   2.040
  553DOPC   D2A 6624  18.898   4.773   2.514
  553DOPC   C3A 6625  19.135   4.494   2.816
  553DOPC   C4A 6626  19.319   4.068   3.018
  553DOPC   C1B 6627  18.839   4.023   2.000
  553DOPC   D2B 6628  18.817   4.255   2.438
  553DOPC   C3B 6629  18.818   4.085   2.866
  553DOPC   C4B 6630  18.759   4.188   3.334
  554DOPC   NC3 6631  11.926   3.985   0.932
  554DOPC   PO4 6632  12.271   3.909   1.111
  554DOPC   GL1 6633  11.990   3.680   1.390
  554DOPC   GL2 6634  12.229   3.483   1.390
  554DOPC   C1A 6635  11.871   3.723   1.837
  554DOPC   D2A 6636  11.856   3.754   2.360
  554DOPC   C3A 6637  11.785   3.823   2.841
  554DOPC   C4A 6638  11.602   3.831   3.312
  554DOPC   C1B 6639  12.296   3.431   1.831
  554DOPC   D2B 6640  12.120   3.320   2.301
  554DOPC   C3B 6641  12.094   3.421   2.773
  554DOPC   C4B 6642  12.063   3.520   3.265
  555DOPC   NC3 6643  18.993   1.052   1.252
  555DOPC   PO4 6644  19.023   1.393   1.454
  555DOPC   GL1 6645  18.887   1.304   1.849
  555DOPC   GL2 6646  19.075   1.076   1.761
  555DOPC   C1A 6647  18.888   1.327   2.301
  555DOPC   D2A 6648  18.862   1.277   2.815
  555DOPC   C3A 6649  18.732   1.459   3.239
  555DOPC   C4A 6650  18.657   1.671   3.687
  555DOPC   C1B 6651  19.329   0.991   2.081
  555DOPC   D2B 6652  19.485   0.861   2.518
  555DOPC   C3B 6653  19.281   0.989   2.917
  555DOPC   C4B 6654  19.006   0.966   3.326
  556DOPC   NC3 6655   1.807   8.112   0.938
  556DOPC   PO4 6656   1.512   7.900   1.111
  556DOPC   GL1 6657   1.761   7.862   1.489
  556DOPC   GL2 6658   1.880   8.113   1.394
  556DOPC   C1A 6659   1.797   7.920   1.944
  556DOPC   D2A 6660   1.695   8.019   2.439
  556DOPC   C3A 6661   1.798   8.078   2.908
  556DOPC   C4A 6662   1.942   8.052   3.392
  556DOPC   C1B 6663   2.054   8.311   1.713
  556DOPC   D2B 6664   1.962   8.398   2.188
  556DOPC   C3B 6665   2.064   8.423   2.641
  556DOPC   C4B 6666   2.187   8.417   3.126
  557DOPC   NC3 6667   1.997   1.892   1.017
  557DOPC   PO4 6668   2.228   2.062   1.298
  557DOPC   GL1 6669   1.904   2.095   1.575
  557DOPC   GL2 6670   1.858   1.791   1.491
  557DOPC   C1A 6671   1.947   1.996   2.008
  557DOPC   D2A 6672   2.075   1.841   2.458
  557DOPC   C3A 6673   2.069   2.019   2.886
  557DOPC   C4A 6674   2.131   2.316   3.267
  557DOPC   C1B 6675   1.699   1.581   1.854
  557DOPC   D2B 6676   1.607   1.654   2.347
  557DOPC   C3B 6677   1.754   1.629   2.805
  557DOPC   C4B 6678   1.922   1.616   3.276
  558DOPC   NC3 6679   0.557   9.749   1.114
  558DOPC   PO4 6680   0.588   9.389   1.289
  558DOPC   GL1 6681   0.442   9.492   1.665
  558DOPC   GL2 6682   0.471   9.798   1.628
  558DOPC   C1A 6683   0.586   9.446   2.081
  558DOPC   D2A 6684   0.603   9.386   2.577
  558DOPC   C3A 6685   0.472   9.451   3.021
  558DOPC   C4A 6686   0.370   9.548   3.498
  558DOPC   C1B 6687   0.511   9.969   2.058
  558DOPC   D2B 6688   0.466   9.945   2.569
  558DOPC   C3B 6689   0.508   9.966   3.055
  558DOPC   C4B 6690   0.643   0.006   3.541
  559DOPC   NC3 6691  14.330   9.674   1.234
  559DOPC   PO4 6692  14.584   9.932   1.419
  559DOPC   GL1 6693  14.438   9.694   1.730
  559DOPC   GL2 6694  14.132   9.752   1.647
  559DOPC   C1A 6695  14.611   9.539   2.117
  559DOPC   D2A 6696  14.893   9.450   2.534
  559DOPC   C3A 6697  14.779   9.498   2.993
  559DOPC   C4A 6698  14.509   9.852   3.223
  559DOPC   C1B 6699  13.834   9.674   1.964
  559DOPC   D2B 6700  13.696   9.506   2.415
  559DOPC   C3B 6701  13.700   9.434   2.868
  559DOPC   C4B 6702  13.928   9.598   3.265
  560DOPC   NC3 6703  17.567   2.911   1.323
  560DOPC   PO4 6704  17.537   2.520   1.410
  560DOPC   GL1 6705  17.880   2.472   1.638
  560DOPC   GL2 6706  17.871   2.786   1.681
  560DOPC   C1A 6707  17.967   2.366   2.047
  560DOPC   D2A 6708  18.072   2.153   2.485
  560DOPC   C3A 6709  18.039   2.435   2.852
  560DOPC   C4A 6710  18.007   2.702   3.269
  560DOPC   C1B 6711  18.016   2.898   2.095
  560DOPC   D2B 6712  18.047   2.906   2.599
  560DOPC   C3B 6713  18.174   3.135   2.991
  560DOPC   C4B 6714  18.318   3.352   3.405
  561DOPC   NC3 6715   6.844   6.677   1.194
  561DOPC   PO4 6716   6.798   7.069   1.264
  561DOPC   GL1 6717   6.582   6.957   1.592
  561DOPC   GL2 6718   6.454   6.712   1.478
  561DOPC   C1A 6719   6.776   6.760   1.924
  561DOPC   D2A 6720   6.720   6.531   2.354
  561DOPC   C3A 6721   6.794   6.723   2.772
  561DOPC   C4A 6722   6.921   7.003   3.162
  561DOPC   C1B 6723   6.314   6.525   1.870
  561DOPC   D2B 6724   6.230   6.419   2.359
  561DOPC   C3B 6725   6.303   6.474   2.829
  561DOPC   C4B 6726   6.546   6.612   3.244
  562DOPC   NC3 6727  13.450   1.943   1.141
  562DOPC   PO4 6728  13.179   1.664   1.240
  562DOPC   GL1 6729  13.424   1.818   1.596
  562DOPC   GL2 6730  13.269   2.072   1.582
  562DOPC   C1A 6731  13.601   1.683   2.010
  562DOPC   D2A 6732  13.600   1.616   2.519
  562DOPC   C3A 6733  13.639   1.754   2.971
  562DOPC   C4A 6734  13.676   1.816   3.468
  562DOPC   C1B 6735  13.437   2.156   1.990
  562DOPC   D2B 6736  13.554   2.222   2.485
  562DOPC   C3B 6737  13.347   2.162   2.916
  562DOPC   C4B 6738  13.096   2.051   3.335
  563DOPC   NC3 6739   5.332   9.030   1.285
  563DOPC   PO4 6740   4.967   8.884   1.275
  563DOPC   GL1 6741   4.848   8.847   1.655
  563DOPC   GL2 6742   4.762   8.543   1.630
  563DOPC   C1A 6743   5.143   8.894   1.998
  563DOPC   D2A 6744   5.512   8.972   2.347
  563DOPC   C3A 6745   5.537   9.128   2.794
  563DOPC   C4A 6746   5.322   9.181   3.240
  563DOPC   C1B 6747   4.793   8.466   2.057
  563DOPC   D2B 6748   4.947   8.434   2.537
  563DOPC   C3B 6749   4.755   8.551   2.953
  563DOPC   C4B 6750   4.567   8.712   3.385
  564DOPC   NC3 6751  16.520   2.963   1.110
  564DOPC   PO4 6752  16.272   2.734   1.317
  564DOPC   GL1 6753  16.648   2.694   1.502
  564DOPC   GL2 6754  16.592   2.415   1.575
  564DOPC   C1A 6755  16.788   2.908   1.836
  564DOPC   D2A 6756  16.758   2.976   2.326
  564DOPC   C3A 6757  16.800   2.917   2.789
  564DOPC   C4A 6758  16.619   2.785   3.225
  564DOPC   C1B 6759  16.547   2.487   2.010
  564DOPC   D2B 6760  16.564   2.528   2.509
  564DOPC   C3B 6761  16.644   2.343   2.941
  564DOPC   C4B 6762  16.778   2.343   3.422
  565DOPC   NC3 6763  16.460   7.428   1.073
  565DOPC   PO4 6764  16.302   7.683   1.330
  565DOPC   GL1 6765  16.327   7.352   1.573
  565DOPC   GL2 6766  16.631   7.304   1.508
  565DOPC   C1A 6767  16.395   7.453   1.997
  565DOPC   D2A 6768  16.570   7.278   2.435
  565DOPC   C3A 6769  16.420   7.354   2.873
  565DOPC   C4A 6770  16.217   7.404   3.322
  565DOPC   C1B 6771  16.882   7.311   1.901
  565DOPC   D2B 6772  17.063   7.242   2.376
  565DOPC   C3B 6773  16.970   7.548   2.746
  565DOPC   C4B 6774  17.060   7.795   3.181
  566DOPC   NC3 6775   4.930   8.389   1.210
  566DOPC   PO4 6776   4.959   7.993   1.124
  566DOPC   GL1 6777   4.868   7.825   1.529
  566DOPC   GL2 6778   4.959   8.119   1.632
  566DOPC   C1A 6779   4.744   7.811   1.955
  566DOPC   D2A 6780   4.689   8.025   2.406
  566DOPC   C3A 6781   4.789   7.991   2.868
  566DOPC   C4A 6782   4.821   7.874   3.344
  566DOPC   C1B 6783   5.133   8.091   2.073
  566DOPC   D2B 6784   5.215   7.950   2.557
  566DOPC   C3B 6785   5.236   8.251   2.932
  566DOPC   C4B 6786   5.272   8.626   3.266
  567DOPC   NC3 6787  17.295   3.299   1.139
  567DOPC   PO4 6788  17.140   3.633   1.284
  567DOPC   GL1 6789  17.289   3.510   1.654
  567DOPC   GL2 6790  17.203   3.229   1.614
  567DOPC   C1A 6791  17.357   3.566   2.090
  567DOPC   D2A 6792  17.331   3.621   2.594
  567DOPC   C3A 6793  17.445   3.773   3.024
  567DOPC   C4A 6794  17.591   3.824   3.511
  567DOPC   C1B 6795  17.196   3.090   2.043
  567DOPC   D2B 6796  17.252   2.926   2.507
  567DOPC   C3B 6797  17.282   3.178   2.900
  567DOPC   C4B 6798  17.393   3.390   3.338
  568DOPC   NC3 6799   6.529   5.186   1.045
  568DOPC   PO4 6800   6.267   5.478   1.112
  568DOPC   GL1 6801   6.349   5.517   1.526
  568DOPC   GL2 6802   6.643   5.578   1.465
  568DOPC   C1A 6803   6.317   5.786   1.875
  568DOPC   D2A 6804   6.327   5.881   2.360
  568DOPC   C3A 6805   6.272   5.732   2.803
  568DOPC   C4A 6806   6.198   5.563   3.263
  568DOPC   C1B 6807   6.826   5.769   1.833
  568DOPC   D2B 6808   6.846   5.997   2.282
  568DOPC   C3B 6809   6.627   6.116   2.683
  568DOPC   C4B 6810   6.437   6.093   3.154
  569DOPC   NC3 6811   6.874   4.282   1.112
  569DOPC   PO4 6812   6.636   3.990   1.253
  569DOPC   GL1 6813   6.386   4.068   1.612
  569DOPC   GL2 6814   6.431   4.364   1.522
  569DOPC   C1A 6815   6.604   4.005   2.010
  569DOPC   D2A 6816   6.875   3.929   2.423
  569DOPC   C3A 6817   6.792   3.940   2.884
  569DOPC   C4A 6818   6.627   4.081   3.325
  569DOPC   C1B 6819   6.473   4.489   1.944
  569DOPC   D2B 6820   6.356   4.377   2.424
  569DOPC   C3B 6821   6.456   4.356   2.884
  569DOPC   C4B 6822   6.798   4.541   3.189
  570DOPC   NC3 6823   7.408   7.285   1.211
  570DOPC   PO4 6824   7.757   7.416   1.379
  570DOPC   GL1 6825   7.617   7.128   1.653
  570DOPC   GL2 6826   7.350   7.288   1.688
  570DOPC   C1A 6827   7.655   7.069   2.079
  570DOPC   D2A 6828   7.772   7.065   2.566
  570DOPC   C3A 6829   7.607   7.277   2.954
  570DOPC   C4A 6830   7.444   7.518   3.361
  570DOPC   C1B 6831   7.206   7.287   2.125
  570DOPC   D2B 6832   7.206   7.166   2.628
  570DOPC   C3B 6833   7.085   7.468   2.984
  570DOPC   C4B 6834   6.852   7.804   3.278
  571DOPC   NC3 6835  18.201   6.875   1.057
  571DOPC   PO4 6836  18.037   7.219   1.203
  571DOPC   GL1 6837  17.783   7.174   1.516
  571DOPC   GL2 6838  17.702   6.882   1.517
  571DOPC   C1A 6839  17.959   7.074   1.895
  571DOPC   D2A 6840  18.201   6.903   2.304
  571DOPC   C3A 6841  18.092   6.812   2.751
  571DOPC   C4A 6842  17.942   6.801   3.220
  571DOPC   C1B 6843  17.685   6.629   1.926
  571DOPC   D2B 6844  17.681   6.355   2.377
  571DOPC   C3B 6845  17.903   6.323   2.807
  571DOPC   C4B 6846  18.136   6.311   3.250
  572DOPC   NC3 6847  10.224   0.505   0.975
  572DOPC   PO4 6848  10.607   0.477   1.114
  572DOPC   GL1 6849  10.792   0.350   1.520
  572DOPC   GL2 6850  10.708   0.622   1.610
  572DOPC   C1A 6851  10.786   0.228   1.949
  572DOPC   D2A 6852  10.487   0.170   2.357
  572DOPC   C3A 6853  10.458   0.297   2.810
  572DOPC   C4A 6854  10.468   0.439   3.285
  572DOPC   C1B 6855  10.458   0.617   1.998
  572DOPC   D2B 6856  10.200   0.658   2.436
  572DOPC   C3B 6857  10.118   0.687   2.899
  572DOPC   C4B 6858   9.997   0.666   3.370
  573DOPC   NC3 6859   2.016   1.319   1.335
  573DOPC   PO4 6860   2.361   1.102   1.360
  573DOPC   GL1 6861   2.422   1.132   1.783
  573DOPC   GL2 6862   2.103   1.124   1.765
  573DOPC   C1A 6863   2.404   1.128   2.224
  573DOPC   D2A 6864   2.176   1.303   2.641
  573DOPC   C3A 6865   2.306   1.331   3.097
  573DOPC   C4A 6866   2.331   1.459   3.581
  573DOPC   C1B 6867   1.885   1.177   2.148
  573DOPC   D2B 6868   1.647   1.184   2.585
  573DOPC   C3B 6869   1.833   1.155   3.022
  573DOPC   C4B 6870   2.032   1.050   3.473
  574DOPC   NC3 6871  19.164   5.626   1.150
  574DOPC   PO4 6872  19.314   5.928   1.368
  574DOPC   GL1 6873  19.132   5.924   1.742
  574DOPC   GL2 6874  19.138   5.611   1.778
  574DOPC   C1A 6875  19.049   6.123   2.137
  574DOPC   D2A 6876  19.040   6.310   2.604
  574DOPC   C3A 6877  18.954   6.009   2.958
  574DOPC   C4A 6878  19.122   5.749   3.363
  574DOPC   C1B 6879  18.920   5.595   2.193
  574DOPC   D2B 6880  18.685   5.617   2.661
  574DOPC   C3B 6881  18.688   5.608   3.146
  574DOPC   C4B 6882  18.688   5.648   3.650
  575DOPC   NC3 6883  16.619   5.499   1.331
  575DOPC   PO4 6884  16.982   5.659   1.236
  575DOPC   GL1 6885  17.019   5.613   1.686
  575DOPC   GL2 6886  16.768   5.802   1.669
  575DOPC   C1A 6887  16.979   5.673   2.135
  575DOPC   D2A 6888  16.813   5.813   2.590
  575DOPC   C3A 6889  16.872   5.674   3.037
  575DOPC   C4A 6890  16.852   5.550   3.514
  575DOPC   C1B 6891  16.513   5.855   2.036
  575DOPC   D2B 6892  16.289   5.843   2.488
  575DOPC   C3B 6893  16.407   5.899   2.932
  575DOPC   C4B 6894  16.598   5.957   3.369
  576DOPC   NC3 6895   2.769   1.231   1.060
  576DOPC   PO4 6896   2.889   1.576   1.227
  576DOPC   GL1 6897   2.678   1.403   1.517
  576DOPC   GL2 6898   2.818   1.143   1.537
  576DOPC   C1A 6899   2.718   1.484   1.927
  576DOPC   D2A 6900   2.941   1.329   2.349
  576DOPC   C3A 6901   2.855   1.351   2.815
  576DOPC   C4A 6902   2.760   1.540   3.263
  576DOPC   C1B 6903   2.833   0.986   1.963
  576DOPC   D2B 6904   2.819   0.836   2.448
  576DOPC   C3B 6905   2.611   0.900   2.878
  576DOPC   C4B 6906   2.537   0.978   3.368
  577DOPC   NC3 6907  18.552   8.899   1.068
  577DOPC   PO4 6908  18.341   8.640   1.276
  577DOPC   GL1 6909  18.301   8.791   1.618
  577DOPC   GL2 6910  18.042   8.940   1.617
  577DOPC   C1A 6911  18.298   8.639   2.015
  577DOPC   D2A 6912  18.104   8.672   2.464
  577DOPC   C3A 6913  18.146   8.689   2.922
  577DOPC   C4A 6914  18.260   8.837   3.363
  577DOPC   C1B 6915  17.958   9.047   2.041
  577DOPC   D2B 6916  17.945   9.187   2.525
  577DOPC   C3B 6917  17.915   9.150   2.993
  577DOPC   C4B 6918  17.839   9.100   3.469
  578DOPC   NC3 6919  17.368   2.040   1.397
  578DOPC   PO4 6920  17.442   1.661   1.528
  578DOPC   GL1 6921  17.169   1.705   1.874
  578DOPC   GL2 6922  17.310   1.997   1.888
  578DOPC   C1A 6923  17.063   1.746   2.308
  578DOPC   D2A 6924  17.000   1.983   2.757
  578DOPC   C3A 6925  17.118   1.950   3.224
  578DOPC   C4A 6926  17.329   1.775   3.651
  578DOPC   C1B 6927  17.354   2.167   2.319
  578DOPC   D2B 6928  17.476   2.237   2.818
  578DOPC   C3B 6929  17.618   2.213   3.273
  578DOPC   C4B 6930  17.723   2.105   3.767
  579DOPC   NC3 6931   4.941   0.999   1.204
  579DOPC   PO4 6932   5.213   0.778   1.385
  579DOPC   GL1 6933   4.869   0.815   1.681
  579DOPC   GL2 6934   4.987   1.088   1.700
  579DOPC   C1A 6935   4.757   0.759   2.120
  579DOPC   D2A 6936   4.758   0.855   2.617
  579DOPC   C3A 6937   4.768   1.185   2.962
  579DOPC   C4A 6938   4.850   1.219   3.455
  579DOPC   C1B 6939   4.990   1.215   2.137
  579DOPC   D2B 6940   5.106   1.338   2.619
  579DOPC   C3B 6941   5.239   1.342   3.091
  579DOPC   C4B 6942   5.343   1.361   3.586
  580DOPC   NC3 6943   2.788   2.415   0.937
  580DOPC   PO4 6944   2.525   2.682   1.090
  580DOPC   GL1 6945   2.230   2.542   1.429
  580DOPC   GL2 6946   2.266   2.842   1.509
  580DOPC   C1A 6947   2.196   2.407   1.853
  580DOPC   D2A 6948   2.124   2.372   2.355
  580DOPC   C3A 6949   2.304   2.461   2.793
  580DOPC   C4A 6950   2.605   2.534   3.201
  580DOPC   C1B 6951   2.469   2.822   1.919
  580DOPC   D2B 6952   2.566   2.695   2.409
  580DOPC   C3B 6953   2.544   2.906   2.846
  580DOPC   C4B 6954   2.414   3.204   3.238
  581DOPC   NC3 6955   1.022   3.334   1.270
  581DOPC   PO4 6956   0.893   3.705   1.180
  581DOPC   GL1 6957   1.087   3.835   1.557
  581DOPC   GL2 6958   1.272   3.605   1.549
  581DOPC   C1A 6959   1.103   3.977   1.959
  581DOPC   D2A 6960   0.978   4.047   2.428
  581DOPC   C3A 6961   1.008   3.967   2.878
  581DOPC   C4A 6962   1.163   3.752   3.291
  581DOPC   C1B 6963   1.091   3.456   1.947
  581DOPC   D2B 6964   0.892   3.502   2.430
  581DOPC   C3B 6965   1.037   3.427   2.891
  581DOPC   C4B 6966   1.383   3.303   3.253
  582DOPC   NC3 6967   7.320   5.520   1.173
  582DOPC   PO4 6968   6.969   5.333   1.240
  582DOPC   GL1 6969   6.962   5.346   1.705
  582DOPC   GL2 6970   7.203   5.536   1.637
  582DOPC   C1A 6971   6.995   5.398   2.157
  582DOPC   D2A 6972   7.032   5.339   2.647
  582DOPC   C3A 6973   7.348   5.559   2.895
  582DOPC   C4A 6974   6.904   5.793   2.957
  582DOPC   C1B 6975   7.345   5.738   2.007
  582DOPC   D2B 6976   7.300   5.874   2.490
  582DOPC   C3B 6977   7.345   6.058   2.931
  582DOPC   C4B 6978   7.176   5.910   3.369
  583DOPC   NC3 6979   7.211   8.038   1.212
  583DOPC   PO4 6980   7.295   7.714   1.430
  583DOPC   GL1 6981   7.648   7.827   1.623
  583DOPC   GL2 6982   7.523   8.133   1.600
  583DOPC   C1A 6983   7.627   7.605   2.004
  583DOPC   D2A 6984   7.565   7.518   2.489
  583DOPC   C3A 6985   7.540   7.775   2.882
  583DOPC   C4A 6986   7.491   8.050   3.288
  583DOPC   C1B 6987   7.203   8.329   1.888
  583DOPC   D2B 6988   6.975   8.536   2.306
  583DOPC   C3B 6989   7.099   8.467   2.769
  583DOPC   C4B 6990   7.381   8.562   3.187
  584DOPC   NC3 6991  10.604   2.829   1.079
  584DOPC   PO4 6992  10.711   2.553   1.349
  584DOPC   GL1 6993  10.751   2.892   1.663
  584DOPC   GL2 6994  10.658   2.641   1.834
  584DOPC   C1A 6995  10.814   3.090   2.065
  584DOPC   D2A 6996  10.836   3.177   2.568
  584DOPC   C3A 6997  10.797   2.979   2.994
  584DOPC   C4A 6998  10.687   2.552   3.232
  584DOPC   C1B 6999  10.564   2.695   2.283
  584DOPC   D2B 7000  10.441   2.682   2.775
  584DOPC   C3B 7001  10.311   2.900   3.182
  584DOPC   C4B 7002  10.321   3.121   3.634
  585DOPC   NC3 7003   0.561   2.230   1.063
  585DOPC   PO4 7004   0.928   2.092   1.167
  585DOPC   GL1 7005   0.955   2.358   1.517
  585DOPC   GL2 7006   0.671   2.484   1.447
  585DOPC   C1A 7007   0.904   2.118   1.899
  585DOPC   D2A 7008   0.702   1.843   2.286
  585DOPC   C3A 7009   0.782   1.805   2.753
  585DOPC   C4A 7010   0.848   1.773   3.249
  585DOPC   C1B 7011   0.407   2.271   1.753
  585DOPC   D2B 7012   0.233   2.054   2.182
  585DOPC   C3B 7013   0.356   2.082   2.641
  585DOPC   C4B 7014   0.427   2.087   3.135
  586DOPC   NC3 7015   5.183   3.914   1.243
  586DOPC   PO4 7016   5.504   3.706   1.376
  586DOPC   GL1 7017   5.424   3.608   1.797
  586DOPC   GL2 7018   5.124   3.618   1.702
  586DOPC   C1A 7019   5.458   3.432   2.224
  586DOPC   D2A 7020   5.665   3.142   2.572
  586DOPC   C3A 7021   5.492   3.229   2.986
  586DOPC   C4A 7022   5.371   3.532   3.353
  586DOPC   C1B 7023   5.011   3.333   2.011
  586DOPC   D2B 7024   5.056   3.320   2.522
  586DOPC   C3B 7025   5.055   3.533   2.955
  586DOPC   C4B 7026   4.940   3.836   3.346
  587DOPC   NC3 7027  19.716   5.680   1.185
  587DOPC   PO4 7028   0.092   5.750   1.302
  587DOPC   GL1 7029  19.941   6.000   1.629
  587DOPC   GL2 7030  19.679   5.847   1.636
  587DOPC   C1A 7031  19.926   6.020   2.075
  587DOPC   D2A 7032  19.758   6.067   2.538
  587DOPC   C3A 7033  19.919   5.848   2.914
  587DOPC   C4A 7034   0.085   5.545   3.269
  587DOPC   C1B 7035  19.464   5.833   2.045
  587DOPC   D2B 7036  19.265   5.827   2.505
  587DOPC   C3B 7037  19.413   5.803   2.940
  587DOPC   C4B 7038  19.642   5.927   3.352
  588DOPC   NC3 7039   4.568   2.680   1.205
  588DOPC   PO4 7040   4.653   3.057   1.325
  588DOPC   GL1 7041   4.648   3.035   1.798
  588DOPC   GL2 7042   4.575   2.744   1.703
  588DOPC   C1A 7043   4.721   3.009   2.267
  588DOPC   D2A 7044   4.698   3.046   2.786
  588DOPC   C3A 7045   4.520   3.048   3.232
  588DOPC   C4A 7046   4.374   3.147   3.702
  588DOPC   C1B 7047   4.619   2.523   2.080
  588DOPC   D2B 7048   4.726   2.581   2.561
  588DOPC   C3B 7049   4.517   2.598   2.980
  588DOPC   C4B 7050   4.199   2.633   3.348
  589DOPC   NC3 7051  19.207   2.713   1.070
  589DOPC   PO4 7052  19.206   3.047   1.295
  589DOPC   GL1 7053  19.044   2.966   1.703
  589DOPC   GL2 7054  18.882   2.731   1.606
  589DOPC   C1A 7055  18.946   2.933   2.142
  589DOPC   D2A 7056  18.910   2.831   2.626
  589DOPC   C3A 7057  19.031   2.806   3.084
  589DOPC   C4A 7058  19.167   2.901   3.558
  589DOPC   C1B 7059  18.604   2.598   1.955
  589DOPC   D2B 7060  18.426   2.557   2.440
  589DOPC   C3B 7061  18.479   2.731   2.889
  589DOPC   C4B 7062  18.614   2.964   3.310
  590DOPC   NC3 7063  18.030   3.676   0.900
  590DOPC   PO4 7064  17.643   3.693   1.042
  590DOPC   GL1 7065  17.675   3.418   1.399
  590DOPC   GL2 7066  17.943   3.593   1.461
  590DOPC   C1A 7067  17.632   3.204   1.798
  590DOPC   D2A 7068  17.648   3.188   2.312
  590DOPC   C3A 7069  17.761   3.357   2.746
  590DOPC   C4A 7070  17.891   3.547   3.192
  590DOPC   C1B 7071  18.019   3.518   1.911
  590DOPC   D2B 7072  18.143   3.367   2.378
  590DOPC   C3B 7073  18.350   3.577   2.752
  590DOPC   C4B 7074  18.606   3.701   3.167
  591DOPC   NC3 7075  14.129   3.636   0.862
  591DOPC   PO4 7076  14.152   3.323   1.118
  591DOPC   GL1 7077  13.923   3.315   1.512
  591DOPC   GL2 7078  13.893   3.613   1.518
  591DOPC   C1A 7079  14.112   3.181   1.905
  591DOPC   D2A 7080  14.393   3.032   2.301
  591DOPC   C3A 7081  14.341   3.181   2.749
  591DOPC   C4A 7082  14.178   3.306   3.193
  591DOPC   C1B 7083  14.011   3.673   1.934
  591DOPC   D2B 7084  14.126   3.488   2.389
  591DOPC   C3B 7085  14.189   3.680   2.816
  591DOPC   C4B 7086  14.418   3.889   3.208
  592DOPC   NC3 7087   8.848   8.649   0.809
  592DOPC   PO4 7088   8.689   8.985   0.953
  592DOPC   GL1 7089   8.660   9.012   1.368
  592DOPC   GL2 7090   8.908   8.849   1.410
  592DOPC   C1A 7091   8.511   9.040   1.780
  592DOPC   D2A 7092   8.501   8.999   2.286
  592DOPC   C3A 7093   8.598   8.923   2.751
  592DOPC   C4A 7094   8.753   8.891   3.235
  592DOPC   C1B 7095   8.987   8.893   1.847
  592DOPC   D2B 7096   9.003   8.918   2.348
  592DOPC   C3B 7097   9.118   8.934   2.806
  592DOPC   C4B 7098   9.232   9.121   3.254
  593DOPC   NC3 7099  11.378   8.118   1.027
  593DOPC   PO4 7100  11.661   8.089   1.309
  593DOPC   GL1 7101  11.538   8.387   1.632
  593DOPC   GL2 7102  11.269   8.286   1.503
  593DOPC   C1A 7103  11.463   8.450   2.092
  593DOPC   D2A 7104  11.410   8.581   2.579
  593DOPC   C3A 7105  11.447   8.310   2.961
  593DOPC   C4A 7106  11.371   7.903   3.240
  593DOPC   C1B 7107  11.062   8.203   1.893
  593DOPC   D2B 7108  11.047   8.280   2.397
  593DOPC   C3B 7109  11.013   8.053   2.811
  593DOPC   C4B 7110  10.875   7.760   3.187
  594DOPC   NC3 7111  17.229   9.814   1.138
  594DOPC   PO4 7112  17.174   0.145   1.367
  594DOPC   GL1 7113  16.960   9.904   1.633
  594DOPC   GL2 7114  17.059   9.637   1.530
  594DOPC   C1A 7115  17.106   9.867   2.045
  594DOPC   D2A 7116  17.233   9.714   2.493
  594DOPC   C3A 7117  17.150   9.758   2.944
  594DOPC   C4A 7118  17.177   9.846   3.411
  594DOPC   C1B 7119  17.274   9.413   1.872
  594DOPC   D2B 7120  17.485   9.287   2.313
  594DOPC   C3B 7121  17.545   9.434   2.769
  594DOPC   C4B 7122  17.626   9.750   3.160
  595DOPC   NC3 7123   0.113   7.014   1.202
  595DOPC   PO4 7124   0.098   7.393   1.330
  595DOPC   GL1 7125   0.380   7.234   1.588
  595DOPC   GL2 7126   0.461   7.500   1.703
  595DOPC   C1A 7127   0.235   7.048   1.962
  595DOPC   D2A 7128   0.113   7.163   2.439
  595DOPC   C3A 7129   0.175   7.190   2.908
  595DOPC   C4A 7130   0.296   7.322   3.362
  595DOPC   C1B 7131   0.443   7.477   2.162
  595DOPC   D2B 7132   0.576   7.371   2.644
  595DOPC   C3B 7133   0.712   7.456   3.100
  595DOPC   C4B 7134   0.741   7.427   3.615
  596DOPC   NC3 7135   9.212   8.907   1.058
  596DOPC   PO4 7136   9.190   8.510   1.160
  596DOPC   GL1 7137   9.201   8.535   1.628
  596DOPC   GL2 7138   9.335   8.818   1.535
  596DOPC   C1A 7139   9.351   8.628   2.063
  596DOPC   D2A 7140   9.531   8.919   2.452
  596DOPC   C3A 7141   9.603   8.877   2.924
  596DOPC   C4A 7142   9.378   8.630   3.290
  596DOPC   C1B 7143   9.661   8.962   1.821
  596DOPC   D2B 7144   9.958   9.142   2.201
  596DOPC   C3B 7145   9.979   9.153   2.677
  596DOPC   C4B 7146  10.003   9.104   3.168
  597DOPC   NC3 7147  12.610   1.078   1.319
  597DOPC   PO4 7148  12.632   1.476   1.250
  597DOPC   GL1 7149  12.896   1.458   1.567
  597DOPC   GL2 7150  13.031   1.220   1.456
  597DOPC   C1A 7151  12.673   1.439   1.949
  597DOPC   D2A 7152  12.403   1.487   2.376
  597DOPC   C3A 7153  12.537   1.563   2.825
  597DOPC   C4A 7154  12.761   1.610   3.263
  597DOPC   C1B 7155  12.974   1.037   1.852
  597DOPC   D2B 7156  12.780   1.098   2.321
  597DOPC   C3B 7157  12.866   1.140   2.794
  597DOPC   C4B 7158  13.110   1.065   3.218
  598DOPC   NC3 7159  14.784   8.935   1.232
  598DOPC   PO4 7160  15.185   8.907   1.239
  598DOPC   GL1 7161  15.171   9.027   1.654
  598DOPC   GL2 7162  14.877   9.072   1.674
  598DOPC   C1A 7163  15.117   8.764   2.005
  598DOPC   D2A 7164  14.969   8.550   2.457
  598DOPC   C3A 7165  15.017   8.613   2.936
  598DOPC   C4A 7166  15.105   8.653   3.431
  598DOPC   C1B 7167  14.667   8.998   2.085
  598DOPC   D2B 7168  14.634   8.931   2.594
  598DOPC   C3B 7169  14.623   8.971   3.076
  598DOPC   C4B 7170  14.633   8.934   3.585
  599DOPC   NC3 7171   3.053   0.502   1.081
  599DOPC   PO4 7172   3.094   0.838   1.308
  599DOPC   GL1 7173   3.210   0.834   1.735
  599DOPC   GL2 7174   3.485   0.695   1.680
  599DOPC   C1A 7175   3.208   0.617   2.131
  599DOPC   D2A 7176   3.453   0.510   2.573
  599DOPC   C3A 7177   3.384   0.410   3.043
  599DOPC   C4A 7178   3.218   0.423   3.517
  599DOPC   C1B 7179   3.732   0.564   2.072
  599DOPC   D2B 7180   3.952   0.301   2.464
  599DOPC   C3B 7181   3.856   0.222   2.933
  599DOPC   C4B 7182   3.706   0.225   3.423
  600DOPC   NC3 7183   4.254   7.936   1.090
  600DOPC   PO4 7184   4.514   8.105   1.355
  600DOPC   GL1 7185   4.409   7.900   1.662
  600DOPC   GL2 7186   4.168   7.747   1.538
  600DOPC   C1A 7187   4.365   8.174   2.020
  600DOPC   D2A 7188   4.421   8.484   2.413
  600DOPC   C3A 7189   4.357   8.253   2.796
  600DOPC   C4A 7190   4.467   8.224   3.272
  600DOPC   C1B 7191   3.986   7.826   1.929
  600DOPC   D2B 7192   4.001   8.023   2.399
  600DOPC   C3B 7193   3.947   7.950   2.860
  600DOPC   C4B 7194   3.895   7.935   3.358
  601DOPC   NC3 7195   7.324   3.398   1.179
  601DOPC   PO4 7196   7.526   3.746   1.221
  601DOPC   GL1 7197   7.642   3.681   1.635
  601DOPC   GL2 7198   7.402   3.487   1.662
  601DOPC   C1A 7199   7.666   3.698   2.070
  601DOPC   D2A 7200   7.389   3.861   2.441
  601DOPC   C3A 7201   7.308   3.821   2.894
  601DOPC   C4A 7202   7.300   3.723   3.363
  601DOPC   C1B 7203   7.199   3.504   2.089
  601DOPC   D2B 7204   7.048   3.459   2.582
  601DOPC   C3B 7205   7.127   3.350   3.046
  601DOPC   C4B 7206   7.143   3.288   3.553
  602DOPC   NC3 7207  13.384   0.428   1.177
  602DOPC   PO4 7208  13.559   0.738   1.365
  602DOPC   GL1 7209  13.258   0.681   1.700
  602DOPC   GL2 7210  13.354   0.386   1.646
  602DOPC   C1A 7211  13.246   0.705   2.164
  602DOPC   D2A 7212  13.327   0.663   2.670
  602DOPC   C3A 7213  13.271   0.595   3.138
  602DOPC   C4A 7214  13.319   0.733   3.613
  602DOPC   C1B 7215  13.523   0.283   2.033
  602DOPC   D2B 7216  13.742   0.491   2.425
  602DOPC   C3B 7217  13.656   0.334   2.863
  602DOPC   C4B 7218  13.520   0.004   3.210
  603DOPC   NC3 7219   3.382   1.681   1.206
  603DOPC   PO4 7220   3.759   1.571   1.301
  603DOPC   GL1 7221   3.636   1.491   1.700
  603DOPC   GL2 7222   3.388   1.698   1.688
  603DOPC   C1A 7223   3.922   1.487   2.040
  603DOPC   D2A 7224   4.156   1.551   2.480
  603DOPC   C3A 7225   3.897   1.495   2.882
  603DOPC   C4A 7226   3.597   1.616   3.262
  603DOPC   C1B 7227   3.117   1.789   2.073
  603DOPC   D2B 7228   2.971   1.790   2.572
  603DOPC   C3B 7229   3.150   1.822   3.026
  603DOPC   C4B 7230   3.375   2.099   3.397
  604DOPC   NC3 7231  12.827   0.753   0.926
  604DOPC   PO4 7232  13.047   0.802   1.255
  604DOPC   GL1 7233  12.815   0.655   1.594
  604DOPC   GL2 7234  12.937   0.377   1.492
  604DOPC   C1A 7235  12.748   0.626   2.050
  604DOPC   D2A 7236  12.837   0.638   2.552
  604DOPC   C3A 7237  12.777   0.664   3.023
  604DOPC   C4A 7238  12.823   0.712   3.519
  604DOPC   C1B 7239  13.019   0.207   1.897
  604DOPC   D2B 7240  13.126   0.238   2.383
  604DOPC   C3B 7241  13.065   0.235   2.850
  604DOPC   C4B 7242  12.912   0.233   3.319
  605DOPC   NC3 7243  13.841   7.041   0.969
  605DOPC   PO4 7244  14.176   6.845   1.092
  605DOPC   GL1 7245  14.316   7.036   1.483
  605DOPC   GL2 7246  14.570   6.877   1.478
  605DOPC   C1A 7247  14.249   6.932   1.906
  605DOPC   D2A 7248  14.362   6.756   2.355
  605DOPC   C3A 7249  14.294   6.895   2.798
  605DOPC   C4A 7250  14.184   6.771   3.260
  605DOPC   C1B 7251  14.600   6.570   1.809
  605DOPC   D2B 7252  14.634   6.313   2.257
  605DOPC   C3B 7253  14.532   6.294   2.729
  605DOPC   C4B 7254  14.430   6.228   3.219
  606DOPC   NC3 7255  18.165   5.205   1.316
  606DOPC   PO4 7256  17.771   5.234   1.372
  606DOPC   GL1 7257  17.846   5.134   1.765
  606DOPC   GL2 7258  18.019   4.901   1.679
  606DOPC   C1A 7259  18.005   5.256   2.167
  606DOPC   D2A 7260  18.149   5.495   2.599
  606DOPC   C3A 7261  18.237   5.393   3.058
  606DOPC   C4A 7262  18.305   5.290   3.559
  606DOPC   C1B 7263  18.169   4.722   2.060
  606DOPC   D2B 7264  18.377   4.635   2.508
  606DOPC   C3B 7265  18.208   4.891   2.878
  606DOPC   C4B 7266  17.945   5.052   3.291
  607DOPC   NC3 7267   5.842   9.593   1.166
  607DOPC   PO4 7268   5.512   9.493   1.375
  607DOPC   GL1 7269   5.739   9.518   1.715
  607DOPC   GL2 7270   5.994   9.381   1.571
  607DOPC   C1A 7271   5.688   9.788   2.074
  607DOPC   D2A 7272   5.363   0.076   2.334
  607DOPC   C3A 7273   5.459   0.052   2.796
  607DOPC   C4A 7274   5.546   0.068   3.290
  607DOPC   C1B 7275   6.263   9.477   1.899
  607DOPC   D2B 7276   6.211   9.708   2.339
  607DOPC   C3B 7277   5.894   9.656   2.679
  607DOPC   C4B 7278   5.572   9.594   3.042
  608DOPC   NC3 7279   6.041   4.136   1.265
  608DOPC   PO4 7280   6.067   4.552   1.308
  608DOPC   GL1 7281   5.869   4.574   1.698
  608DOPC   GL2 7282   5.946   4.279   1.686
  608DOPC   C1A 7283   5.972   4.629   2.131
  608DOPC   D2A 7284   6.050   4.768   2.590
  608DOPC   C3A 7285   6.016   4.618   3.031
  608DOPC   C4A 7286   6.156   4.241   3.326
  608DOPC   C1B 7287   6.109   4.147   2.043
  608DOPC   D2B 7288   5.889   4.147   2.492
  608DOPC   C3B 7289   5.817   4.166   2.955
  608DOPC   C4B 7290   5.664   4.254   3.436
  609DOPC   NC3 7291   0.519   5.561   1.095
  609DOPC   PO4 7292   0.784   5.248   1.078
  609DOPC   GL1 7293   0.884   5.203   1.494
  609DOPC   GL2 7294   0.776   4.902   1.497
  609DOPC   C1A 7295   0.586   5.345   1.794
  609DOPC   D2A 7296   0.245   5.351   2.170
  609DOPC   C3A 7297   0.160   5.292   2.640
  609DOPC   C4A 7298   0.021   5.076   3.080
  609DOPC   C1B 7299   0.594   4.839   1.923
  609DOPC   D2B 7300   0.453   4.919   2.406
  609DOPC   C3B 7301   0.358   4.761   2.843
  609DOPC   C4B 7302   0.138   4.515   3.222
  610DOPC   NC3 7303  11.336   1.434   0.995
  610DOPC   PO4 7304  11.325   1.037   1.069
  610DOPC   GL1 7305  11.452   1.072   1.475
  610DOPC   GL2 7306  11.322   1.362   1.474
  610DOPC   C1A 7307  11.411   0.917   1.890
  610DOPC   D2A 7308  11.372   0.682   2.344
  610DOPC   C3A 7309  11.307   0.806   2.803
  610DOPC   C4A 7310  11.187   1.040   3.235
  610DOPC   C1B 7311  11.310   1.546   1.891
  610DOPC   D2B 7312  11.374   1.750   2.359
  610DOPC   C3B 7313  11.244   1.747   2.819
  610DOPC   C4B 7314  10.993   1.612   3.237
  611DOPC   NC3 7315   2.104   5.352   1.035
  611DOPC   PO4 7316   1.844   5.316   1.340
  611DOPC   GL1 7317   2.029   5.043   1.570
  611DOPC   GL2 7318   1.838   4.809   1.493
  611DOPC   C1A 7319   2.027   5.059   2.011
  611DOPC   D2A 7320   1.870   5.020   2.481
  611DOPC   C3A 7321   2.009   5.081   2.919
  611DOPC   C4A 7322   2.292   5.339   3.209
  611DOPC   C1B 7323   1.740   4.620   1.877
  611DOPC   D2B 7324   1.686   4.562   2.375
  611DOPC   C3B 7325   1.701   4.631   2.851
  611DOPC   C4B 7326   1.756   4.829   3.310
  612DOPC   NC3 7327  14.220   7.375   1.147
  612DOPC   PO4 7328  14.568   7.180   1.113
  612DOPC   GL1 7329  14.716   7.314   1.439
  612DOPC   GL2 7330  14.462   7.482   1.543
  612DOPC   C1A 7331  14.708   7.182   1.829
  612DOPC   D2A 7332  14.605   7.208   2.300
  612DOPC   C3A 7333  14.621   7.328   2.734
  612DOPC   C4A 7334  14.567   7.437   3.211
  612DOPC   C1B 7335  14.257   7.427   1.961
  612DOPC   D2B 7336  14.105   7.222   2.413
  612DOPC   C3B 7337  14.142   7.398   2.859
  612DOPC   C4B 7338  14.148   7.745   3.215
  613DOPC   NC3 7339   1.086   6.474   1.269
  613DOPC   PO4 7340   1.230   6.114   1.389
  613DOPC   GL1 7341   1.182   6.187   1.790
  613DOPC   GL2 7342   1.023   6.457   1.730
  613DOPC   C1A 7343   1.195   6.074   2.223
  613DOPC   D2A 7344   1.230   6.057   2.717
  613DOPC   C3A 7345   1.163   6.405   3.031
  613DOPC   C4A 7346   0.939   6.678   3.391
  613DOPC   C1B 7347   1.048   6.784   2.035
  613DOPC   D2B 7348   0.976   7.000   2.488
  613DOPC   C3B 7349   1.180   6.915   2.914
  613DOPC   C4B 7350   1.440   6.821   3.336
  614DOPC   NC3 7351  11.459   9.750   1.172
  614DOPC   PO4 7352  11.259   9.419   1.283
  614DOPC   GL1 7353  11.437   9.508   1.649
  614DOPC   GL2 7354  11.286   9.787   1.640
  614DOPC   C1A 7355  11.439   9.435   2.083
  614DOPC   D2A 7356  11.258   9.617   2.512
  614DOPC   C3A 7357  11.229   9.691   2.972
  614DOPC   C4A 7358  11.248   9.747   3.466
  614DOPC   C1B 7359  11.019   9.735   1.998
  614DOPC   D2B 7360  10.755   9.731   2.428
  614DOPC   C3B 7361  10.727   9.834   2.888
  614DOPC   C4B 7362  10.855   0.069   3.307
  615DOPC   NC3 7363   8.309   7.108   1.183
  615DOPC   PO4 7364   8.049   6.962   1.428
  615DOPC   GL1 7365   8.036   7.044   1.818
  615DOPC   GL2 7366   7.996   7.345   1.805
  615DOPC   C1A 7367   8.089   6.870   2.213
  615DOPC   D2A 7368   8.013   6.611   2.624
  615DOPC   C3A 7369   7.937   6.866   3.013
  615DOPC   C4A 7370   7.848   7.162   3.400
  615DOPC   C1B 7371   8.018   7.404   2.254
  615DOPC   D2B 7372   8.048   7.475   2.760
  615DOPC   C3B 7373   7.934   7.638   3.196
  615DOPC   C4B 7374   8.161   7.735   3.633
  616DOPC   NC3 7375  10.698   5.987   1.338
  616DOPC   PO4 7376  10.890   5.650   1.437
  616DOPC   GL1 7377  10.716   5.705   1.810
  616DOPC   GL2 7378  10.494   5.900   1.750
  616DOPC   C1A 7379  10.835   5.853   2.220
  616DOPC   D2A 7380  10.717   6.125   2.631
  616DOPC   C3A 7381  10.730   5.853   3.009
  616DOPC   C4A 7382  10.789   5.560   3.404
  616DOPC   C1B 7383  10.365   6.043   2.169
  616DOPC   D2B 7384  10.159   6.184   2.616
  616DOPC   C3B 7385  10.272   6.111   3.075
  616DOPC   C4B 7386  10.580   6.060   3.467
  617DOPC   NC3 7387  15.855   2.470   1.119
  617DOPC   PO4 7388  15.491   2.422   1.273
  617DOPC   GL1 7389  15.587   2.709   1.564
  617DOPC   GL2 7390  15.883   2.651   1.570
  617DOPC   C1A 7391  15.508   2.686   1.984
  617DOPC   D2A 7392  15.393   2.748   2.470
  617DOPC   C3A 7393  15.684   2.854   2.833
  617DOPC   C4A 7394  15.973   2.981   3.224
  617DOPC   C1B 7395  16.047   2.696   2.000
  617DOPC   D2B 7396  16.081   2.712   2.505
  617DOPC   C3B 7397  16.195   2.627   2.954
  617DOPC   C4B 7398  16.211   2.575   3.454
  618DOPC   NC3 7399   9.012   4.699   0.926
  618DOPC   PO4 7400   8.696   4.688   1.183
  618DOPC   GL1 7401   8.586   4.658   1.633
  618DOPC   GL2 7402   8.898   4.640   1.671
  618DOPC   C1A 7403   8.532   4.716   2.089
  618DOPC   D2A 7404   8.492   4.618   2.593
  618DOPC   C3A 7405   8.506   4.639   3.080
  618DOPC   C4A 7406   8.451   4.597   3.590
  618DOPC   C1B 7407   9.031   4.563   2.106
  618DOPC   D2B 7408   9.022   4.548   2.622
  618DOPC   C3B 7409   8.983   4.865   2.975
  618DOPC   C4B 7410   8.987   5.307   3.210
  619DOPC   NC3 7411  10.277   8.012   1.031
  619DOPC   PO4 7412  10.575   7.761   1.116
  619DOPC   GL1 7413  10.475   7.727   1.524
  619DOPC   GL2 7414  10.244   7.932   1.512
  619DOPC   C1A 7415  10.653   7.818   1.924
  619DOPC   D2A 7416  10.675   7.925   2.414
  619DOPC   C3A 7417  10.503   7.865   2.848
  619DOPC   C4A 7418  10.249   7.661   3.223
  619DOPC   C1B 7419  10.357   8.223   1.846
  619DOPC   D2B 7420  10.584   8.455   2.243
  619DOPC   C3B 7421  10.602   8.371   2.710
  619DOPC   C4B 7422  10.682   8.240   3.188
  620DOPC   NC3 7423  18.811   3.684   1.351
  620DOPC   PO4 7424  19.186   3.832   1.350
  620DOPC   GL1 7425  19.396   3.596   1.657
  620DOPC   GL2 7426  19.152   3.405   1.602
  620DOPC   C1A 7427  19.253   3.708   2.068
  620DOPC   D2A 7428  18.913   3.735   2.448
  620DOPC   C3A 7429  19.051   3.642   2.893
  620DOPC   C4A 7430  19.073   3.789   3.379
  620DOPC   C1B 7431  18.867   3.399   1.958
  620DOPC   D2B 7432  18.644   3.274   2.403
  620DOPC   C3B 7433  18.729   3.239   2.868
  620DOPC   C4B 7434  19.003   3.296   3.271
  621DOPC   NC3 7435  16.051   1.272   1.130
  621DOPC   PO4 7436  15.717   1.492   1.150
  621DOPC   GL1 7437  15.745   1.325   1.552
  621DOPC   GL2 7438  16.030   1.442   1.570
  621DOPC   C1A 7439  15.707   1.285   2.000
  621DOPC   D2A 7440  15.703   1.480   2.472
  621DOPC   C3A 7441  15.675   1.400   2.946
  621DOPC   C4A 7442  15.686   1.254   3.424
  621DOPC   C1B 7443  16.200   1.395   1.984
  621DOPC   D2B 7444  16.294   1.176   2.422
  621DOPC   C3B 7445  16.201   1.390   2.829
  621DOPC   C4B 7446  16.065   1.628   3.249
  622DOPC   NC3 7447   5.725   8.688   1.160
  622DOPC   PO4 7448   5.834   9.068   1.236
  622DOPC   GL1 7449   5.642   9.098   1.635
  622DOPC   GL2 7450   5.577   8.801   1.622
  622DOPC   C1A 7451   5.881   9.172   2.012
  622DOPC   D2A 7452   6.241   9.172   2.370
  622DOPC   C3A 7453   6.077   9.149   2.809
  622DOPC   C4A 7454   5.846   9.160   3.242
  622DOPC   C1B 7455   5.778   8.676   2.003
  622DOPC   D2B 7456   5.959   8.719   2.474
  622DOPC   C3B 7457   5.842   8.686   2.934
  622DOPC   C4B 7458   5.797   8.574   3.419
  623DOPC   NC3 7459  11.868   8.815   1.013
  623DOPC   PO4 7460  11.572   8.591   1.165
  623DOPC   GL1 7461  11.888   8.637   1.466
  623DOPC   GL2 7462  11.835   8.937   1.493
  623DOPC   C1A 7463  11.904   8.576   1.892
  623DOPC   D2A 7464  11.910   8.466   2.397
  623DOPC   C3A 7465  11.844   8.637   2.842
  623DOPC   C4A 7466  11.454   8.817   3.115
  623DOPC   C1B 7467  11.972   9.120   1.895
  623DOPC   D2B 7468  11.920   9.378   2.337
  623DOPC   C3B 7469  11.683   9.406   2.756
  623DOPC   C4B 7470  11.518   9.350   3.227
  624DOPC   NC3 7471   9.100   3.426   1.224
  624DOPC   PO4 7472   8.839   3.182   1.404
  624DOPC   GL1 7473   8.910   3.352   1.784
  624DOPC   GL2 7474   8.982   3.625   1.667
  624DOPC   C1A 7475   8.834   3.325   2.228
  624DOPC   D2A 7476   8.875   3.325   2.724
  624DOPC   C3A 7477   8.982   3.428   3.169
  624DOPC   C4A 7478   8.986   3.341   3.654
  624DOPC   C1B 7479   8.736   3.772   2.007
  624DOPC   D2B 7480   8.577   3.736   2.494
  624DOPC   C3B 7481   8.610   3.708   2.972
  624DOPC   C4B 7482   8.650   3.699   3.475
  625DOPC   NC3 7483  14.418   0.489   1.313
  625DOPC   PO4 7484  14.652   0.772   1.475
  625DOPC   GL1 7485  14.404   0.830   1.860
  625DOPC   GL2 7486  14.200   0.639   1.714
  625DOPC   C1A 7487  14.272   0.662   2.269
  625DOPC   D2A 7488  14.172   0.351   2.669
  625DOPC   C3A 7489  14.387   0.431   3.088
  625DOPC   C4A 7490  14.607   0.738   3.414
  625DOPC   C1B 7491  14.036   0.299   1.986
  625DOPC   D2B 7492  13.854   9.999   2.365
  625DOPC   C3B 7493  13.924   9.911   2.833
  625DOPC   C4B 7494  14.047   0.095   3.288
  626DOPC   NC3 7495  17.942   4.045   1.259
  626DOPC   PO4 7496  18.315   3.908   1.338
  626DOPC   GL1 7497  18.308   3.848   1.771
  626DOPC   GL2 7498  18.038   4.009   1.812
  626DOPC   C1A 7499  18.405   3.818   2.209
  626DOPC   D2A 7500  18.363   4.093   2.626
  626DOPC   C3A 7501  18.443   4.407   2.968
  626DOPC   C4A 7502  18.257   4.088   3.289
  626DOPC   C1B 7503  18.015   4.203   2.256
  626DOPC   D2B 7504  17.965   4.408   2.746
  626DOPC   C3B 7505  18.023   4.555   3.217
  626DOPC   C4B 7506  18.050   4.727   3.691
  627DOPC   NC3 7507   1.439   2.124   1.012
  627DOPC   PO4 7508   1.337   2.433   1.248
  627DOPC   GL1 7509   1.455   2.181   1.580
  627DOPC   GL2 7510   1.305   1.944   1.446
  627DOPC   C1A 7511   1.405   2.034   1.999
  627DOPC   D2A 7512   1.178   2.007   2.445
  627DOPC   C3A 7513   1.234   2.052   2.907
  627DOPC   C4A 7514   1.215   2.123   3.391
  627DOPC   C1B 7515   1.183   1.641   1.773
  627DOPC   D2B 7516   1.118   1.538   2.269
  627DOPC   C3B 7517   1.248   1.561   2.732
  627DOPC   C4B 7518   1.399   1.651   3.205
  628DOPC   NC3 7519  19.477   3.638   0.973
  628DOPC   PO4 7520  19.660   3.357   1.180
  628DOPC   GL1 7521  19.571   3.175   1.576
  628DOPC   GL2 7522  19.850   3.298   1.643
  628DOPC   C1A 7523  19.366   3.201   1.970
  628DOPC   D2A 7524  19.165   3.296   2.416
  628DOPC   C3A 7525  19.279   3.173   2.842
  628DOPC   C4A 7526  19.512   3.195   3.281
  628DOPC   C1B 7527  19.750   3.552   1.997
  628DOPC   D2B 7528  19.569   3.620   2.471
  628DOPC   C3B 7529  19.565   3.584   2.941
  628DOPC   C4B 7530  19.585   3.704   3.417
  629DOPC   NC3 7531  15.072   9.376   1.316
  629DOPC   PO4 7532  14.694   9.407   1.421
  629DOPC   GL1 7533  14.878   9.598   1.721
  629DOPC   GL2 7534  15.066   9.782   1.543
  629DOPC   C1A 7535  15.060   9.308   2.034
  629DOPC   D2A 7536  15.145   9.023   2.430
  629DOPC   C3A 7537  15.112   9.106   2.870
  629DOPC   C4A 7538  15.040   9.152   3.340
  629DOPC   C1B 7539  15.306   9.712   1.910
  629DOPC   D2B 7540  15.403   9.547   2.391
  629DOPC   C3B 7541  15.327   9.568   2.877
  629DOPC   C4B 7542  15.164   9.656   3.349
  630DOPC   NC3 7543   9.499   0.805   1.085
  630DOPC   PO4 7544   9.773   0.574   1.258
  630DOPC   GL1 7545   9.649   0.697   1.667
  630DOPC   GL2 7546   9.351   0.683   1.533
  630DOPC   C1A 7547   9.725   0.564   2.118
  630DOPC   D2A 7548   9.739   0.420   2.615
  630DOPC   C3A 7549   9.605   0.583   3.042
  630DOPC   C4A 7550   9.509   0.804   3.484
  630DOPC   C1B 7551   9.257   0.491   1.911
  630DOPC   D2B 7552   9.268   0.527   2.414
  630DOPC   C3B 7553   9.206   0.330   2.844
  630DOPC   C4B 7554   9.072   0.148   3.291
  631DOPC   NC3 7555   4.175   1.952   1.262
  631DOPC   PO4 7556   4.493   1.713   1.259
  631DOPC   GL1 7557   4.455   1.620   1.692
  631DOPC   GL2 7558   4.161   1.697   1.675
  631DOPC   C1A 7559   4.574   1.598   2.124
  631DOPC   D2A 7560   4.660   1.578   2.627
  631DOPC   C3A 7561   4.603   1.748   3.070
  631DOPC   C4A 7562   4.401   2.167   3.252
  631DOPC   C1B 7563   4.193   1.970   2.031
  631DOPC   D2B 7564   4.195   2.373   2.345
  631DOPC   C3B 7565   4.119   2.322   2.810
  631DOPC   C4B 7566   3.862   2.230   3.230
  632DOPC   NC3 7567   6.687   0.507   1.086
  632DOPC   PO4 7568   6.902   0.731   1.340
  632DOPC   GL1 7569   6.843   0.531   1.704
  632DOPC   GL2 7570   6.549   0.670   1.700
  632DOPC   C1A 7571   6.841   0.533   2.144
  632DOPC   D2A 7572   6.610   0.642   2.571
  632DOPC   C3A 7573   6.666   0.542   3.031
  632DOPC   C4A 7574   6.909   0.195   3.296
  632DOPC   C1B 7575   6.320   0.635   2.098
  632DOPC   D2B 7576   6.073   0.620   2.550
  632DOPC   C3B 7577   6.158   0.678   3.015
  632DOPC   C4B 7578   6.349   0.796   3.460
  633DOPC   NC3 7579   8.235   9.206   0.945
  633DOPC   PO4 7580   8.030   9.500   1.119
  633DOPC   GL1 7581   8.209   9.599   1.539
  633DOPC   GL2 7582   7.900   9.656   1.588
  633DOPC   C1A 7583   8.371   9.516   1.975
  633DOPC   D2A 7584   8.550   9.494   2.459
  633DOPC   C3A 7585   8.409   9.578   2.907
  633DOPC   C4A 7586   8.168   9.597   3.343
  633DOPC   C1B 7587   7.881   9.649   2.037
  633DOPC   D2B 7588   8.073   9.681   2.494
  633DOPC   C3B 7589   7.872   9.625   2.911
  633DOPC   C4B 7590   7.600   9.562   3.322
  634DOPC   NC3 7591  16.192   0.762   1.150
  634DOPC   PO4 7592  16.451   0.722   1.456
  634DOPC   GL1 7593  16.708   0.543   1.725
  634DOPC   GL2 7594  16.729   0.285   1.548
  634DOPC   C1A 7595  16.651   0.530   2.184
  634DOPC   D2A 7596  16.651   0.539   2.710
  634DOPC   C3A 7597  16.504   0.605   3.178
  634DOPC   C4A 7598  16.264   0.589   3.628
  634DOPC   C1B 7599  16.646   0.064   1.927
  634DOPC   D2B 7600  16.715   9.820   2.368
  634DOPC   C3B 7601  16.707   9.993   2.804
  634DOPC   C4B 7602  16.829   0.202   3.234
  635DOPC   NC3 7603   3.805   1.151   1.011
  635DOPC   PO4 7604   3.415   1.212   1.049
  635DOPC   GL1 7605   3.239   1.279   1.440
  635DOPC   GL2 7606   3.507   1.111   1.512
  635DOPC   C1A 7607   3.195   1.332   1.870
  635DOPC   D2A 7608   3.446   1.476   2.296
  635DOPC   C3A 7609   3.372   1.406   2.768
  635DOPC   C4A 7610   3.207   1.269   3.231
  635DOPC   C1B 7611   3.578   1.049   1.968
  635DOPC   D2B 7612   3.331   1.002   2.410
  635DOPC   C3B 7613   3.302   0.906   2.860
  635DOPC   C4B 7614   3.506   0.840   3.306
  636DOPC   NC3 7615   3.975   6.489   1.172
  636DOPC   PO4 7616   4.118   6.831   1.326
  636DOPC   GL1 7617   4.196   6.530   1.614
  636DOPC   GL2 7618   4.479   6.451   1.537
  636DOPC   C1A 7619   4.123   6.635   2.049
  636DOPC   D2A 7620   4.077   6.905   2.459
  636DOPC   C3A 7621   3.936   6.975   2.897
  636DOPC   C4A 7622   3.822   7.041   3.368
  636DOPC   C1B 7623   4.595   6.456   1.955
  636DOPC   D2B 7624   4.546   6.692   2.403
  636DOPC   C3B 7625   4.335   6.654   2.834
  636DOPC   C4B 7626   4.215   6.675   3.317
  637DOPC   NC3 7627   4.037   9.189   1.073
  637DOPC   PO4 7628   4.211   9.504   1.245
  637DOPC   GL1 7629   4.288   9.193   1.513
  637DOPC   GL2 7630   4.583   9.255   1.542
  637DOPC   C1A 7631   4.119   9.181   1.934
  637DOPC   D2A 7632   3.946   9.399   2.345
  637DOPC   C3A 7633   4.140   9.406   2.766
  637DOPC   C4A 7634   4.216   9.622   3.197
  637DOPC   C1B 7635   4.537   9.456   1.947
  637DOPC   D2B 7636   4.553   9.411   2.457
  637DOPC   C3B 7637   4.612   9.630   2.884
  637DOPC   C4B 7638   4.634   9.866   3.336
  638DOPC   NC3 7639  12.571   2.886   1.362
  638DOPC   PO4 7640  12.901   2.656   1.435
  638DOPC   GL1 7641  12.849   2.279   1.638
  638DOPC   GL2 7642  12.541   2.309   1.616
  638DOPC   C1A 7643  12.951   2.281   2.068
  638DOPC   D2A 7644  13.027   2.314   2.559
  638DOPC   C3A 7645  12.973   2.544   2.971
  638DOPC   C4A 7646  12.867   2.958   3.238
  638DOPC   C1B 7647  12.450   2.422   2.054
  638DOPC   D2B 7648  12.459   2.386   2.562
  638DOPC   C3B 7649  12.452   2.621   2.979
  638DOPC   C4B 7650  12.442   2.735   3.475
  639DOPC   NC3 7651   1.622   5.807   1.235
  639DOPC   PO4 7652   1.750   6.162   1.352
  639DOPC   GL1 7653   1.604   6.006   1.719
  639DOPC   GL2 7654   1.767   5.724   1.684
  639DOPC   C1A 7655   1.706   6.072   2.148
  639DOPC   D2A 7656   1.737   6.177   2.646
  639DOPC   C3A 7657   1.660   6.101   3.113
  639DOPC   C4A 7658   1.575   5.843   3.537
  639DOPC   C1B 7659   1.868   5.555   2.112
  639DOPC   D2B 7660   2.032   5.507   2.597
  639DOPC   C3B 7661   2.021   5.726   3.028
  639DOPC   C4B 7662   2.078   5.864   3.508
  640DOPC   NC3 7663  16.632   3.681   1.360
  640DOPC   PO4 7664  16.724   3.399   1.092
  640DOPC   GL1 7665  16.765   3.243   1.473
  640DOPC   GL2 7666  16.506   3.130   1.553
  640DOPC   C1A 7667  16.847   3.440   1.856
  640DOPC   D2A 7668  16.922   3.449   2.351
  640DOPC   C3A 7669  16.829   3.470   2.818
  640DOPC   C4A 7670  16.607   3.606   3.249
  640DOPC   C1B 7671  16.402   3.194   2.000
  640DOPC   D2B 7672  16.404   3.345   2.491
  640DOPC   C3B 7673  16.398   3.210   2.958
  640DOPC   C4B 7674  16.387   3.187   3.455
  641DOPC   NC3 7675   1.488   0.630   1.358
  641DOPC   PO4 7676   1.114   0.778   1.332
  641DOPC   GL1 7677   0.992   0.735   1.765
  641DOPC   GL2 7678   1.255   0.558   1.769
  641DOPC   C1A 7679   1.044   0.728   2.205
  641DOPC   D2A 7680   1.222   0.562   2.653
  641DOPC   C3A 7681   1.134   0.603   3.121
  641DOPC   C4A 7682   1.226   0.846   3.549
  641DOPC   C1B 7683   1.344   0.304   2.130
  641DOPC   D2B 7684   1.393   0.057   2.570
  641DOPC   C3B 7685   1.486   0.228   2.999
  641DOPC   C4B 7686   1.424   0.312   3.485
  642DOPC   NC3 7687   6.949   4.857   1.070
  642DOPC   PO4 7688   6.593   4.712   1.192
  642DOPC   GL1 7689   6.346   4.986   1.430
  642DOPC   GL2 7690   6.603   5.137   1.517
  642DOPC   C1A 7691   6.257   4.925   1.850
  642DOPC   D2A 7692   6.501   4.884   2.300
  642DOPC   C3A 7693   6.511   4.863   2.778
  642DOPC   C4A 7694   6.401   4.841   3.268
  642DOPC   C1B 7695   6.553   5.315   1.949
  642DOPC   D2B 7696   6.569   5.430   2.463
  642DOPC   C3B 7697   6.587   5.346   2.948
  642DOPC   C4B 7698   6.581   5.271   3.454
  643DOPC   NC3 7699   2.575   1.903   0.981
  643DOPC   PO4 7700   2.377   1.570   1.098
  643DOPC   GL1 7701   2.293   1.639   1.523
  643DOPC   GL2 7702   2.544   1.818   1.540
  643DOPC   C1A 7703   2.218   1.548   1.953
  643DOPC   D2A 7704   2.510   1.602   2.369
  643DOPC   C3A 7705   2.473   1.712   2.818
  643DOPC   C4A 7706   2.385   1.880   3.282
  643DOPC   C1B 7707   2.519   1.970   1.971
  643DOPC   D2B 7708   2.544   2.111   2.461
  643DOPC   C3B 7709   2.724   2.136   2.897
  643DOPC   C4B 7710   2.856   2.080   3.366
  644DOPC   NC3 7711  19.529   4.129   1.115
  644DOPC   PO4 7712  19.550   4.523   1.196
  644DOPC   GL1 7713  19.337   4.539   1.590
  644DOPC   GL2 7714  19.358   4.219   1.578
  644DOPC   C1A 7715  19.439   4.527   2.028
  644DOPC   D2A 7716  19.724   4.450   2.447
  644DOPC   C3A 7717  19.649   4.481   2.912
  644DOPC   C4A 7718  19.331   4.490   3.306
  644DOPC   C1B 7719  19.625   4.053   1.917
  644DOPC   D2B 7720  19.922   3.975   2.335
  644DOPC   C3B 7721  19.784   4.010   2.799
  644DOPC   C4B 7722  19.750   4.169   3.292
  645DOPC   NC3 7723   3.449   6.379   1.106
  645DOPC   PO4 7724   3.584   6.750   1.037
  645DOPC   GL1 7725   3.661   6.831   1.439
  645DOPC   GL2 7726   3.507   7.082   1.484
  645DOPC   C1A 7727   3.653   6.665   1.853
  645DOPC   D2A 7728   3.641   6.654   2.367
  645DOPC   C3A 7729   3.770   6.489   2.807
  645DOPC   C4A 7730   3.760   6.450   3.312
  645DOPC   C1B 7731   3.428   7.120   1.941
  645DOPC   D2B 7732   3.219   7.111   2.401
  645DOPC   C3B 7733   3.113   6.908   2.809
  645DOPC   C4B 7734   3.046   6.673   3.239
  646DOPC   NC3 7735  14.595   2.275   1.011
  646DOPC   PO4 7736  14.392   1.991   1.213
  646DOPC   GL1 7737  14.589   1.929   1.622
  646DOPC   GL2 7738  14.476   1.642   1.576
  646DOPC   C1A 7739  14.471   2.069   2.058
  646DOPC   D2A 7740  14.392   2.196   2.561
  646DOPC   C3A 7741  14.379   2.163   3.040
  646DOPC   C4A 7742  14.339   2.106   3.535
  646DOPC   C1B 7743  14.128   1.732   1.861
  646DOPC   D2B 7744  13.976   1.950   2.296
  646DOPC   C3B 7745  14.075   1.847   2.748
  646DOPC   C4B 7746  14.148   1.688   3.222
  647DOPC   NC3 7747   3.684   3.365   0.645
  647DOPC   PO4 7748   3.672   3.267   1.033
  647DOPC   GL1 7749   3.868   3.261   1.441
  647DOPC   GL2 7750   4.074   3.460   1.358
  647DOPC   C1A 7751   3.891   3.243   1.890
  647DOPC   D2A 7752   3.918   3.165   2.384
  647DOPC   C3A 7753   3.671   3.176   2.785
  647DOPC   C4A 7754   3.465   3.120   3.231
  647DOPC   C1B 7755   4.131   3.698   1.757
  647DOPC   D2B 7756   4.205   3.795   2.268
  647DOPC   C3B 7757   4.058   3.674   2.718
  647DOPC   C4B 7758   3.818   3.544   3.146
  648DOPC   NC3 7759  16.148   8.888   1.250
  648DOPC   PO4 7760  16.448   8.619   1.216
  648DOPC   GL1 7761  16.397   8.539   1.669
  648DOPC   GL2 7762  16.195   8.762   1.685
  648DOPC   C1A 7763  16.339   8.647   2.118
  648DOPC   D2A 7764  16.120   8.980   2.435
  648DOPC   C3A 7765  16.004   8.911   2.889
  648DOPC   C4A 7766  15.969   8.749   3.352
  648DOPC   C1B 7767  15.848   8.705   1.975
  648DOPC   D2B 7768  15.475   8.534   2.271
  648DOPC   C3B 7769  15.479   8.702   2.711
  648DOPC   C4B 7770  15.499   8.915   3.164
  649DOPC   NC3 7771   8.887   2.675   1.302
  649DOPC   PO4 7772   8.557   2.443   1.359
  649DOPC   GL1 7773   8.530   2.549   1.764
  649DOPC   GL2 7774   8.354   2.789   1.699
  649DOPC   C1A 7775   8.706   2.542   2.189
  649DOPC   D2A 7776   8.786   2.465   2.693
  649DOPC   C3A 7777   9.063   2.442   3.069
  649DOPC   C4A 7778   9.276   2.640   3.469
  649DOPC   C1B 7779   8.372   3.000   2.102
  649DOPC   D2B 7780   8.362   3.265   2.550
  649DOPC   C3B 7781   8.415   3.134   3.015
  649DOPC   C4B 7782   8.377   2.758   3.361
  650DOPC   NC3 7783  18.870   0.585   1.090
  650DOPC   PO4 7784  18.494   0.690   1.198
  650DOPC   GL1 7785  18.690   0.532   1.560
  650DOPC   GL2 7786  18.778   0.803   1.600
  650DOPC   C1A 7787  18.625   0.361   1.972
  650DOPC   D2A 7788  18.731   0.084   2.387
  650DOPC   C3A 7789  18.845   0.206   2.835
  650DOPC   C4A 7790  18.959   0.397   3.284
  650DOPC   C1B 7791  18.745   0.888   2.039
  650DOPC   D2B 7792  18.959   0.867   2.498
  650DOPC   C3B 7793  18.778   0.747   2.912
  650DOPC   C4B 7794  18.539   0.695   3.340
  651DOPC   NC3 7795  18.883   7.993   1.268
  651DOPC   PO4 7796  18.521   8.106   1.385
  651DOPC   GL1 7797  18.677   8.114   1.736
  651DOPC   GL2 7798  18.973   8.142   1.714
  651DOPC   C1A 7799  18.570   8.174   2.153
  651DOPC   D2A 7800  18.783   8.089   2.600
  651DOPC   C3A 7801  18.836   8.072   3.073
  651DOPC   C4A 7802  18.849   8.017   3.578
  651DOPC   C1B 7803  19.095   8.220   2.159
  651DOPC   D2B 7804  19.111   8.504   2.586
  651DOPC   C3B 7805  19.092   8.514   3.057
  651DOPC   C4B 7806  19.283   8.160   3.360
  652DOPC   NC3 7807   1.171   5.765   1.012
  652DOPC   PO4 7808   0.934   5.677   1.317
  652DOPC   GL1 7809   1.038   5.780   1.689
  652DOPC   GL2 7810   1.322   5.674   1.582
  652DOPC   C1A 7811   0.874   5.647   2.088
  652DOPC   D2A 7812   0.672   5.449   2.516
  652DOPC   C3A 7813   0.922   5.613   2.895
  652DOPC   C4A 7814   1.191   5.911   3.199
  652DOPC   C1B 7815   1.396   5.655   2.000
  652DOPC   D2B 7816   1.543   5.715   2.478
  652DOPC   C3B 7817   1.511   5.603   2.928
  652DOPC   C4B 7818   1.290   5.439   3.331
  653DOPC   NC3 7819   2.757   5.339   1.153
  653DOPC   PO4 7820   2.443   5.171   1.336
  653DOPC   GL1 7821   2.663   4.993   1.635
  653DOPC   GL2 7822   2.936   5.131   1.543
  653DOPC   C1A 7823   2.554   5.085   2.051
  653DOPC   D2A 7824   2.379   5.096   2.515
  653DOPC   C3A 7825   2.550   4.970   2.932
  653DOPC   C4A 7826   2.681   4.914   3.399
  653DOPC   C1B 7827   3.074   5.160   1.960
  653DOPC   D2B 7828   2.918   5.199   2.439
  653DOPC   C3B 7829   3.092   5.171   2.870
  653DOPC   C4B 7830   3.210   5.137   3.361
  654DOPC   NC3 7831   9.620   3.457   0.818
  654DOPC   PO4 7832   9.603   3.456   1.212
  654DOPC   GL1 7833   9.431   3.639   1.563
  654DOPC   GL2 7834   9.750   3.680   1.628
  654DOPC   C1A 7835   9.339   3.495   1.962
  654DOPC   D2A 7836   9.322   3.292   2.418
  654DOPC   C3A 7837   9.394   3.423   2.858
  654DOPC   C4A 7838   9.441   3.651   3.298
  654DOPC   C1B 7839   9.881   3.493   2.009
  654DOPC   D2B 7840   9.883   3.294   2.474
  654DOPC   C3B 7841   9.896   3.446   2.918
  654DOPC   C4B 7842   9.854   3.325   3.395
  655DOPC   NC3 7843  11.115   0.508   1.206
  655DOPC   PO4 7844  11.151   0.125   1.325
  655DOPC   GL1 7845  11.200   0.243   1.732
  655DOPC   GL2 7846  11.174   0.549   1.666
  655DOPC   C1A 7847  11.245   0.179   2.176
  655DOPC   D2A 7848  11.128   0.116   2.664
  655DOPC   C3A 7849  11.312   0.191   3.102
  655DOPC   C4A 7850  11.402   0.218   3.598
  655DOPC   C1B 7851  10.971   0.690   2.025
  655DOPC   D2B 7852  10.831   0.536   2.484
  655DOPC   C3B 7853  10.907   0.511   2.956
  655DOPC   C4B 7854  11.043   0.548   3.431
  656DOPC   NC3 7855   5.915   2.912   1.040
  656DOPC   PO4 7856   5.624   3.151   1.195
  656DOPC   GL1 7857   5.895   2.997   1.524
  656DOPC   GL2 7858   5.722   2.744   1.487
  656DOPC   C1A 7859   6.034   2.831   1.915
  656DOPC   D2A 7860   5.984   2.773   2.412
  656DOPC   C3A 7861   6.155   2.797   2.856
  656DOPC   C4A 7862   6.287   3.001   3.293
  656DOPC   C1B 7863   5.577   2.594   1.896
  656DOPC   D2B 7864   5.584   2.442   2.376
  656DOPC   C3B 7865   5.636   2.662   2.787
  656DOPC   C4B 7866   5.773   2.788   3.238
  657DOPC   NC3 7867  14.446   5.676   0.923
  657DOPC   PO4 7868  14.724   5.440   1.087
  657DOPC   GL1 7869  14.460   5.405   1.386
  657DOPC   GL2 7870  14.279   5.609   1.376
  657DOPC   C1A 7871  14.520   5.333   1.800
  657DOPC   D2A 7872  14.599   5.364   2.273
  657DOPC   C3A 7873  14.525   5.395   2.730
  657DOPC   C4A 7874  14.416   5.460   3.209
  657DOPC   C1B 7875  14.206   5.732   1.814
  657DOPC   D2B 7876  14.261   5.743   2.334
  657DOPC   C3B 7877  14.188   5.791   2.812
  657DOPC   C4B 7878  14.046   5.855   3.291
  658DOPC   NC3 7879  15.444   6.656   1.248
  658DOPC   PO4 7880  15.525   7.023   1.400
  658DOPC   GL1 7881  15.906   6.997   1.535
  658DOPC   GL2 7882  15.896   6.694   1.553
  658DOPC   C1A 7883  16.006   7.136   1.962
  658DOPC   D2A 7884  16.071   7.299   2.438
  658DOPC   C3A 7885  15.953   7.135   2.870
  658DOPC   C4A 7886  15.791   6.875   3.266
  658DOPC   C1B 7887  16.079   6.641   1.969
  658DOPC   D2B 7888  16.236   6.801   2.432
  658DOPC   C3B 7889  16.107   6.621   2.858
  658DOPC   C4B 7890  15.938   6.341   3.243
  659DOPC   NC3 7891  15.898   3.509   1.127
  659DOPC   PO4 7892  16.224   3.328   1.255
  659DOPC   GL1 7893  16.223   3.480   1.681
  659DOPC   GL2 7894  15.916   3.464   1.593
  659DOPC   C1A 7895  16.013   3.528   2.081
  659DOPC   D2A 7896  15.701   3.631   2.460
  659DOPC   C3A 7897  15.824   3.838   2.868
  659DOPC   C4A 7898  15.993   3.976   3.313
  659DOPC   C1B 7899  15.790   3.119   1.841
  659DOPC   D2B 7900  15.772   3.089   2.347
  659DOPC   C3B 7901  15.935   3.289   2.754
  659DOPC   C4B 7902  15.967   3.478   3.219
  660DOPC   NC3 7903  10.994   0.962   1.452
  660DOPC   PO4 7904  10.906   1.293   1.239
  660DOPC   GL1 7905  10.916   1.491   1.610
  660DOPC   GL2 7906  10.620   1.538   1.588
  660DOPC   C1A 7907  10.897   1.207   1.948
  660DOPC   D2A 7908  10.616   0.989   2.309
  660DOPC   C3A 7909  10.583   0.899   2.772
  660DOPC   C4A 7910  10.689   0.905   3.258
  660DOPC   C1B 7911  10.389   1.366   1.941
  660DOPC   D2B 7912  10.125   1.175   2.325
  660DOPC   C3B 7913  10.155   1.205   2.784
  660DOPC   C4B 7914  10.285   1.239   3.260
  661DOPC   NC3 7915  12.867   5.743   1.149
  661DOPC   PO4 7916  12.816   5.354   1.247
  661DOPC   GL1 7917  12.651   5.418   1.660
  661DOPC   GL2 7918  12.690   5.733   1.583
  661DOPC   C1A 7919  12.810   5.347   2.087
  661DOPC   D2A 7920  13.003   5.420   2.557
  661DOPC   C3A 7921  12.928   5.465   3.034
  661DOPC   C4A 7922  13.008   5.540   3.536
  661DOPC   C1B 7923  12.638   6.078   1.878
  661DOPC   D2B 7924  12.512   6.186   2.364
  661DOPC   C3B 7925  12.507   6.019   2.813
  661DOPC   C4B 7926  12.566   5.777   3.249
  662DOPC   NC3 7927   3.636   4.408   1.100
  662DOPC   PO4 7928   3.244   4.322   1.134
  662DOPC   GL1 7929   3.389   4.485   1.514
  662DOPC   GL2 7930   3.506   4.219   1.596
  662DOPC   C1A 7931   3.384   4.603   1.926
  662DOPC   D2A 7932   3.605   4.543   2.382
  662DOPC   C3A 7933   3.481   4.427   2.816
  662DOPC   C4A 7934   3.329   4.222   3.238
  662DOPC   C1B 7935   3.672   4.175   2.036
  662DOPC   D2B 7936   3.795   4.085   2.541
  662DOPC   C3B 7937   3.797   4.056   3.032
  662DOPC   C4B 7938   3.648   3.895   3.499
  663DOPC   NC3 7939  11.161   2.556   1.140
  663DOPC   PO4 7940  11.083   2.930   1.258
  663DOPC   GL1 7941  11.100   2.631   1.623
  663DOPC   GL2 7942  11.387   2.680   1.527
  663DOPC   C1A 7943  11.042   2.622   2.091
  663DOPC   D2A 7944  10.978   2.669   2.605
  663DOPC   C3A 7945  11.193   2.622   3.037
  663DOPC   C4A 7946  11.616   2.420   3.236
  663DOPC   C1B 7947  11.425   2.930   1.873
  663DOPC   D2B 7948  11.265   3.032   2.325
  663DOPC   C3B 7949  11.296   3.045   2.786
  663DOPC   C4B 7950  11.686   2.873   3.031
  664DOPC   NC3 7951  12.100   6.464   1.144
  664DOPC   PO4 7952  12.027   6.095   1.293
  664DOPC   GL1 7953  12.183   6.178   1.670
  664DOPC   GL2 7954  12.271   6.468   1.598
  664DOPC   C1A 7955  12.099   6.075   2.088
  664DOPC   D2A 7956  12.068   5.939   2.573
  664DOPC   C3A 7957  12.054   6.062   3.042
  664DOPC   C4A 7958  12.020   6.097   3.532
  664DOPC   C1B 7959  12.070   6.611   1.967
  664DOPC   D2B 7960  12.022   6.457   2.440
  664DOPC   C3B 7961  11.983   6.580   2.891
  664DOPC   C4B 7962  12.089   6.589   3.375
  665DOPC   NC3 7963  17.421   5.896   1.033
  665DOPC   PO4 7964  17.499   5.503   0.998
  665DOPC   GL1 7965  17.357   5.437   1.436
  665DOPC   GL2 7966  17.402   5.736   1.476
  665DOPC   C1A 7967  17.392   5.424   1.891
  665DOPC   D2A 7968  17.405   5.482   2.394
  665DOPC   C3A 7969  17.364   5.609   2.855
  665DOPC   C4A 7970  17.414   5.581   3.360
  665DOPC   C1B 7971  17.348   5.930   1.895
  665DOPC   D2B 7972  17.279   6.011   2.406
  665DOPC   C3B 7973  17.421   6.140   2.852
  665DOPC   C4B 7974  17.597   6.391   3.253
  666W        W 7975   7.600   5.736   7.346
  667W        W 7976   3.774   1.798   6.597
  668W        W 7977  12.093   8.973   9.226
  669W        W 7978   5.053   6.532   7.517
  670W        W 7979   1.520   8.290   0.565
  671W        W 7980   7.399   6.804   6.079
  672W        W 7981  18.251   4.177   0.859
  673W        W 7982  12.388   5.131   5.821
  674W        W 7983  10.705   3.672   9.479
  675W        W 7984  18.248   2.531   8.971
  676W        W 7985  18.896   5.597   8.714
  677W        W 7986  19.028   2.296   0.854
  678W        W 7987  14.619   6.092   7.840
  679W        W 7988   8.076   6.491   6.591
  680W        W 7989  19.691   5.137   9.756
  681W        W 7990  12.708   0.215   7.329
  682W        W 7991   9.687   8.383   7.232
  683W        W 7992  14.149   4.774   7.483
  684W        W 7993  17.916   9.507   6.362
  685W        W 7994  10.735   7.082   9.270
  686W        W 7995  10.558   7.053   6.049
  687W        W 7996  15.471   7.577   6.202
  688W        W 7997  15.649   8.837   9.091
  689W        W 7998  12.534   6.964   9.836
  690W        W 7999  15.039   9.047   6.337
  691W        W 8000   7.975   2.764   9.601
  692W        W 8001   0.335   7.501   7.940
  693W        W 8002  18.960   8.727   0.150
  694W        W 8003  13.757   4.462   6.079
  695W        W 8004   0.627   8.660   6.065
  696W        W 8005  11.301   0.546   9.538
  697W        W 8006  12.989   4.763   7.382
  698W        W 8007  15.360   0.303   9.483
  699W        W 8008  18.168   5.083   8.834
  700W        W 8009   5.994   7.488   7.910
  701W        W 8010   1.248   4.062   8.224
  702W        W 8011  13.115   2.619   7.553
  703W        W 8012   2.404   7.829   0.152
  704W        W 8013   3.095   2.971   8.407
  705W        W 8014  18.212   2.611   7.407
  706W        W 8015   5.605   5.508   5.900
  707W        W 8016  16.147   5.329   7.428
  708W        W 8017  18.388   5.560   8.800
  709W        W 8018   5.972   6.548   7.054
  710W        W 8019  14.847   6.603   8.669
  711W        W 8020   6.073   1.945   0.542
  712W        W 8021   8.051   1.653   8.432
  713W        W 8022   6.382   4.613   8.071
  714W        W 8023  12.905   4.634   6.863
  715W        W 8024  19.909   4.649   7.201
  716W        W 8025   6.977   6.057   6.396
  717W        W 8026   6.641   6.185   0.007
  718W        W 8027   8.910   7.931   6.787
  719W        W 8028  16.275   6.964   8.541
  720W        W 8029  10.179   9.771   6.953
  721W        W 8030   1.655   4.517   9.386
  722W        W 8031  17.822   2.247   8.444
  723W        W 8032  13.365   8.709   9.203
  724W        W 8033  17.343   7.293   9.272
  725W        W 8034  14.481   6.428   7.397
  726W        W 8035   9.016   7.075   7.830
  727W        W 8036  13.882   2.532   6.788
  728W        W 8037  13.590   4.493   8.570
  729W        W 8038  15.545   1.153   7.508
  730W        W 8039  11.817   6.930   9.148
  731W        W 8040   0.182   9.350   6.478
  732W        W 8041   1.248   3.554   0.366
  733W        W 8042   4.228   1.347   9.313
  734W        W 8043  19.828   7.583   7.255
  735W        W 8044  18.545   2.756   6.057
  736W        W 8045   9.283   8.202   8.001
  737W        W 8046   3.206   1.581   9.357
  738W        W 8047   8.344   9.529   6.496
  739W        W 8048   5.199   9.795   9.903
  740W        W 8049  10.924   0.144   9.836
  741W        W 8050  16.499   6.983   0.255
  742W        W 8051  11.904   1.604   9.850
  743W        W 8052  11.009   8.382   7.574
  744W        W 8053   4.325   5.932   6.764
  745W        W 8054   7.150   6.376   9.986
  746W        W 8055   9.097   8.411   8.419
  747W        W 8056  18.782   5.205   6.989
  748W        W 8057   7.754   3.519   0.381
  749W        W 8058  19.091   2.216   0.337
  750W        W 8059  19.370   6.800   6.998
  751W        W 8060  13.752   3.607   7.332
  752W        W 8061  16.741   4.631   6.066
  753W        W 8062   8.855   6.342   0.264
  754W        W 8063  15.402   1.339   8.954
  755W        W 8064  13.987   0.131   0.744
  756W        W 8065  16.783   4.842   7.523
  757W        W 8066   8.240   7.425   8.004
  758W        W 8067   5.158   9.036   8.339
  759W        W 8068  16.771   5.493   9.925
  760W        W 8069   2.035   0.762   7.730
  761W        W 8070   7.857   6.103   8.221
  762W        W 8071   5.165   7.333   8.345
  763W        W 8072  16.566   2.880   0.618
  764W        W 8073   3.284   2.345   6.867
  765W        W 8074  13.058   6.948   8.889
  766W        W 8075   6.884   1.284   0.184
  767W        W 8076  14.932   1.975   7.484
  768W        W 8077  19.695   8.851   7.846
  769W        W 8078   6.175   5.103   9.962
  770W        W 8079  12.946   9.948   9.343
  771W        W 8080  13.071   1.282   8.579
  772W        W 8081   4.051   4.590   8.515
  773W        W 8082  15.240   8.984   9.471
  774W        W 8083   1.255   5.338   8.002
  775W        W 8084   1.146   9.276   6.891
  776W        W 8085   6.103   2.899   0.353
  777W        W 8086   7.124   7.973   7.313
  778W        W 8087  10.158   5.544   6.191
  779W        W 8088   8.234   9.625   7.990
  780W        W 8089  18.122   9.240   0.185
  781W        W 8090  15.521   3.318   0.134
  782W        W 8091   9.167   4.023   7.497
  783W        W 8092  12.262   8.047   6.728
  784W        W 8093   7.249   2.108   7.555
  785W        W 8094  10.513   3.801   0.428
  786W        W 8095   2.865   3.175   9.864
  787W        W 8096   5.336   2.502   0.396
  788W        W 8097   6.408   2.096   9.151
  789W        W 8098   1.421   8.759   8.381
  790W        W 8099   1.832   0.450   0.146
  791W        W 8100   6.439   2.552   6.077
  792W        W 8101  12.526   6.232   9.941
  793W        W 8102   9.807   1.519   7.092
  794W        W 8103  14.600   9.353   0.478
  795W        W 8104   0.106   8.947   9.597
  796W        W 8105   7.971   8.445   0.722
  797W        W 8106   7.050   0.402   0.728
  798W        W 8107   8.486   6.445   0.611
  799W        W 8108  12.077   0.620   7.883
  800W        W 8109   4.108   2.474   1.025
  801W        W 8110   4.055   8.397   7.472
  802W        W 8111   1.887   8.743   7.041
  803W        W 8112  19.603   9.772   7.547
  804W        W 8113  11.392   4.069   8.044
  805W        W 8114  15.997   0.088   7.627
  806W        W 8115  17.378   8.433   6.990
  807W        W 8116  12.368   1.745   0.002
  808W        W 8117   9.131   0.893   8.623
  809W        W 8118   8.415   5.046   9.691
  810W        W 8119  11.516   2.474   0.202
  811W        W 8120  15.793   2.578   9.578
  812W        W 8121   3.104   5.386   6.610
  813W        W 8122  17.319   2.996   6.473
  814W        W 8123  18.939   7.104   6.134
  815W        W 8124  13.876   8.807   0.874
  816W        W 8125   8.598   7.033   6.650
  817W        W 8126  17.253   4.122   0.793
  818W        W 8127   1.150   8.974   8.747
  819W        W 8128  16.788   6.096   7.756
  820W        W 8129  17.979   4.584   8.473
  821W        W 8130   9.886   5.245   5.816
  822W        W 8131  12.139   3.461   9.905
  823W        W 8132  12.657   2.609   7.790
  824W        W 8133  11.178   2.075   9.946
  825W        W 8134   3.719   4.678   7.730
  826W        W 8135   1.442   3.311   9.702
  827W        W 8136  19.116   2.748   7.874
  828W        W 8137   2.613   9.873   7.862
  829W        W 8138   7.529   8.392   6.768
  830W        W 8139  10.088   4.621   6.800
  831W        W 8140   8.502   6.546   6.922
  832W        W 8141   0.647   4.436   5.711
  833W        W 8142  14.679   6.755   6.507
  834W        W 8143  10.981   8.909   0.593
  835W        W 8144  10.386   8.060   6.662
  836W        W 8145   0.326   7.521   7.410
  837W        W 8146   2.670   7.912   8.840
  838W        W 8147   8.076   7.149   8.988
  839W        W 8148  15.880   4.793   6.136
  840W        W 8149   9.379   1.426   0.014
  841W        W 8150   9.103   9.115   7.525
  842W        W 8151  10.845   9.618   9.818
  843W        W 8152  19.923   7.241   8.091
  844W        W 8153  16.449   3.564   7.411
  845W        W 8154  16.813   5.884   6.295
  846W        W 8155  13.303   4.720   6.010
  847W        W 8156  18.275   6.586   6.315
  848W        W 8157  17.007   1.206   7.248
  849W        W 8158   9.725   4.100   7.460
  850W        W 8159  13.600   0.342   7.365
  851W        W 8160   5.887   1.826   0.051
  852W        W 8161   8.045   7.902   9.256
  853W        W 8162   4.628   2.554   6.816
  854W        W 8163  18.824   3.051   9.455
  855W        W 8164   3.986   3.775   7.476
  856W        W 8165   8.670   2.493   9.867
  857W        W 8166   1.260   9.240   8.020
  858W        W 8167  15.951   5.186   9.802
  859W        W 8168  11.734   3.373   0.520
  860W        W 8169  10.470   0.117   0.732
  861W        W 8170   6.769   4.149   6.672
  862W        W 8171   3.615   5.991   9.905
  863W        W 8172   4.828   5.000   7.026
  864W        W 8173  14.550   4.171   7.079
  865W        W 8174  14.906   5.945   9.792
  866W        W 8175  15.051   3.601   0.779
  867W        W 8176   0.603   1.213   0.616
  868W        W 8177   0.498   1.640   9.941
  869W        W 8178   1.756   9.884   5.977
  870W        W 8179   2.198   0.753   8.460
  871W        W 8180   6.071   8.203   7.445
  872W        W 8181   5.800   9.932   7.766
  873W        W 8182  11.121   6.074   7.350
  874W        W 8183  10.758   1.160   6.540
  875W        W 8184  19.840   0.880   9.284
  876W        W 8185   0.270   7.972   0.627
  877W        W 8186   7.372   9.389   9.931
  878W        W 8187  11.822   5.718   7.583
  879W        W 8188   3.495   9.388   6.976
  880W        W 8189  17.824   2.261   7.929
  881W        W 8190   2.831   1.811   9.636
  882W        W 8191   9.134   0.440   7.706
  883W        W 8192   9.843   8.917   6.577
  884W        W 8193   1.693   8.303   7.280
  885W        W 8194   2.606   0.357   6.589
  886W        W 8195   6.934   1.273   9.681
  887W        W 8196  19.891   6.959   8.843
  888W        W 8197  15.531   6.268   7.552
  889W        W 8198   1.674   9.735   9.777
  890W        W 8199   7.417   7.342   0.685
  891W        W 8200  13.883   9.362   6.599
  892W        W 8201   4.857   5.253   9.023
  893W        W 8202   4.132   1.545   0.933
  894W        W 8203  19.171   7.337   9.276
  895W        W 8204   4.662   0.266   6.932
  896W        W 8205  16.723   1.680   9.197
  897W        W 8206   5.547   2.055   6.979
  898W        W 8207   0.292   5.852   7.148
  899W        W 8208   6.380   2.579   9.380
  900W        W 8209   1.213   4.171   9.662
  901W        W 8210  16.477   5.156   9.153
  902W        W 8211   3.556   1.518   8.717
  903W        W 8212  13.721   2.453   0.427
  904W        W 8213   2.826   2.513   8.351
  905W        W 8214   9.091   2.609   0.637
  906W        W 8215  11.354   6.497   7.182
  907W        W 8216  17.246   2.339   6.769
  908W        W 8217   4.651   4.075   9.540
  909W        W 8218   5.435   1.462   7.319
  910W        W 8219  15.852   9.583   7.784
  911W        W 8220   1.499   1.387   7.348
  912W        W 8221  15.645   5.570   8.307
  913W        W 8222  16.804   7.006   7.299
  914W        W 8223  18.720   2.655   8.692
  915W        W 8224   6.062   9.287   7.236
  916W        W 8225  15.550   6.884   8.920
  917W        W 8226   4.491   9.280   6.318
  918W        W 8227  18.356   6.938   7.114
  919W        W 8228   6.814   8.887   6.091
  920W        W 8229  16.637   9.155   9.085
  921W        W 8230   8.889   1.308   0.432
  922W        W 8231  15.933   8.490   6.137
  923W        W 8232  13.141   2.229   8.735
  924W        W 8233   0.000   9.420   8.305
  925W        W 8234  10.946   8.398   9.395
  926W        W 8235  15.199   1.430   6.946
  927W        W 8236  14.248   1.635   6.381
  928W        W 8237   4.703   0.658   9.753
  929W        W 8238   4.462   4.237   6.792
  930W        W 8239   9.155   4.353   6.636
  931W        W 8240   2.804   8.827   6.417
  932W        W 8241  15.914   2.125   9.821
  933W        W 8242  11.994   1.172   0.714
  934W        W 8243   3.733   2.673   6.842
  935W        W 8244  17.453   3.031   8.172
  936W        W 8245   9.936   0.216   6.818
  937W        W 8246   0.257   3.423   8.987
  938W        W 8247  13.742   2.579   0.933
  939W        W 8248   6.657   8.938   7.199
  940W        W 8249  16.221   0.403   9.061
  941W        W 8250   5.190   4.178   9.784
  942W        W 8251  16.857   3.997   0.433
  943W        W 8252  14.403   3.511   8.328
  944W        W 8253  18.483   0.562   5.954
  945W        W 8254   6.153   8.467   6.152
  946W        W 8255   4.389   8.203   7.882
  947W        W 8256  18.263   2.987   0.912
  948W        W 8257  15.172   1.751   8.532
  949W        W 8258   3.844   5.929   6.488
  950W        W 8259  17.438   3.056   8.690
  951W        W 8260  17.838   4.003   0.186
  952W        W 8261   6.328   8.327   9.688
  953W        W 8262  11.255   7.267   0.839
  954W        W 8263   1.623   1.301   8.865
  955W        W 8264  18.955   4.642   6.831
  956W        W 8265  16.741   9.915   6.489
  957W        W 8266  11.071   4.562   0.392
  958W        W 8267  11.346   7.644   6.976
  959W        W 8268   5.747   7.118   0.464
  960W        W 8269   3.988   6.890   9.173
  961W        W 8270   8.146   5.049   0.115
  962W        W 8271  12.562   8.816   8.087
  963W        W 8272   4.639   2.479   9.441
  964W        W 8273   2.109   1.524   0.641
  965W        W 8274  11.695   3.435   9.609
  966W        W 8275  15.798   2.995   1.242
  967W        W 8276  13.496   1.664   0.322
  968W        W 8277   2.724   5.147   8.763
  969W        W 8278  12.946   5.568   9.674
  970W        W 8279   8.052   2.796   6.965
  971W        W 8280  10.919   6.677   6.047
  972W        W 8281   0.118   7.446   0.821
  973W        W 8282   3.274   7.940   0.949
  974W        W 8283  15.055   3.638   7.644
  975W        W 8284   9.130   5.504   0.704
  976W        W 8285  10.066   1.344   0.636
  977W        W 8286  13.640   9.266   9.944
  978W        W 8287   1.180   4.370   6.438
  979W        W 8288   4.965   8.110   8.682
  980W        W 8289  11.876   2.051   7.036
  981W        W 8290   7.676   7.207   8.653
  982W        W 8291  14.836   5.955   8.293
  983W        W 8292   6.838   3.976   8.064
  984W        W 8293  14.816   1.707   0.035
  985W        W 8294   9.036   0.148   8.125
  986W        W 8295   9.955   6.809   0.699
  987W        W 8296   1.089   6.553   6.199
  988W        W 8297  12.667   5.173   6.255
  989W        W 8298  18.240   2.088   9.229
  990W        W 8299  10.349   6.587   7.455
  991W        W 8300   5.935   2.256   9.707
  992W        W 8301  17.895   4.932   0.414
  993W        W 8302   8.251   5.662   6.341
  994W        W 8303   5.051   8.312   0.721
  995W        W 8304   2.183   1.086   0.329
  996W        W 8305  19.612   1.294   9.539
  997W        W 8306  18.655   0.829   7.478
  998W        W 8307   3.049   5.441   8.497
  999W        W 8308   4.377   5.086   6.792
 1000W        W 8309  17.461   9.931   8.481
 1001W        W 8310   7.422   4.575   0.201
 1002W        W 8311   9.460   2.493   6.944
 1003W        W 8312   6.140   6.378   7.932
 1004W        W 8313   4.321   0.729   0.452
 1005W        W 8314  16.347   7.089   7.086
 1006W        W 8315   1.288   5.690   7.595
 1007W        W 8316  10.944   6.998   7.917
 1008W        W 8317  10.013   3.323   1.503
 1009W        W 8318  10.584   9.662   7.769
 1010W        W 8319   0.589   7.026   7.137
 1011W        W 8320  19.408   0.078   7.179
 1012W        W 8321   6.696   3.550   6.948
 1013W        W 8322   2.725   8.850   8.798
 1014W        W 8323   6.557   8.707   9.444
 1015W        W 8324   5.899   2.764   9.489
 1016W        W 8325   6.362   6.873   7.057
 1017W        W 8326   9.300   1.564   7.008
 1018W        W 8327   8.494   1.718   6.579
 1019W        W 8328   3.064   2.083   9.257
 1020W        W 8329  19.494   9.257   8.141
 1021W        W 8330   4.008   8.369   6.306
 1022W        W 8331  16.867   6.582   6.997
 1023W        W 8332  14.754   4.710   7.951
 1024W        W 8333  11.852   9.406   0.175
 1025W        W 8334  17.649   9.079   8.962
 1026W        W 8335  14.763   1.547   0.786
 1027W        W 8336  17.717   4.088   8.679
 1028W        W 8337  13.356   8.533   7.174
 1029W        W 8338  14.080   8.377   0.063
 1030W        W 8339  13.646   2.352   8.844
 1031W        W 8340  14.612   5.947   6.989
 1032W        W 8341  18.194   5.078   7.751
 1033W        W 8342  18.124   9.754   7.331
 1034W        W 8343   8.992   1.885   8.802
 1035W        W 8344   9.590   1.447   8.734
 1036W        W 8345   5.353   3.554   0.923
 1037W        W 8346  13.310   1.233   7.743
 1038W        W 8347  14.588   6.116   8.709
 1039W        W 8348   9.402   2.971   6.713
 1040W        W 8349  16.595   0.023   0.708
 1041W        W 8350   3.901   6.829   0.261
 1042W        W 8351   7.331   9.309   8.542
 1043W        W 8352  14.294   2.609   8.355
 1044W        W 8353  10.450   5.679   9.260
 1045W        W 8354  17.383   6.054   0.135
 1046W        W 8355  14.154   9.742   6.393
 1047W        W 8356   7.379   5.458   6.478
 1048W        W 8357   6.781   9.128   7.668
 1049W        W 8358   8.487   5.109   8.865
 1050W        W 8359   0.847   9.637   6.060
 1051W        W 8360   2.112   2.577   7.801
 1052W        W 8361   8.917   7.452   0.457
 1053W        W 8362  13.340   5.713   7.449
 1054W        W 8363  18.990   0.061   9.921
 1055W        W 8364  10.319   4.556   0.923
 1056W        W 8365   4.728   5.729   8.659
 1057W        W 8366   2.172   8.334   0.110
 1058W        W 8367  14.669   1.602   7.718
 1059W        W 8368   4.288   7.299   9.459
 1060W        W 8369  16.852   7.528   6.580
 1061W        W 8370   4.212   9.169   7.575
 1062W        W 8371   9.033   6.819   0.243
 1063W        W 8372  13.316   1.230   0.543
 1064W        W 8373   6.014   3.051   6.833
 1065W        W 8374   2.103   5.443   9.184
 1066W        W 8375  10.269   2.015   9.287
 1067W        W 8376   0.869   3.073   0.859
 1068W        W 8377   2.920   8.319   9.907
 1069W        W 8378  13.152   6.799   6.716
 1070W        W 8379  17.127   4.353   9.501
 1071W        W 8380   1.945   4.107   9.492
 1072W        W 8381   1.576   5.799   9.685
 1073W        W 8382  18.964   5.185   9.571
 1074W        W 8383  15.721   4.613   0.302
 1075W        W 8384   0.214   0.212   6.848
 1076W        W 8385  11.670   8.755   7.507
 1077W        W 8386   5.796   8.369   7.931
 1078W        W 8387  17.809   1.805   7.665
 1079W        W 8388  15.516   8.647   7.868
 1080W        W 8389   6.796   8.350   9.899
 1081W        W 8390   6.897   1.661   9.007
 1082W        W 8391  15.038   4.194   9.963
 1083W        W 8392   6.702   3.303   6.096
 1084W        W 8393  10.222   6.004   9.575
 1085W        W 8394   6.851   5.465   0.448
 1086W        W 8395   9.068   3.263   9.749
 1087W        W 8396  18.801   3.661   8.736
 1088W        W 8397   4.227   9.737   8.991
 1089W        W 8398   4.515   0.349   0.762
 1090W        W 8399   1.660   9.511   7.518
 1091W        W 8400   8.824   4.416   7.638
 1092W        W 8401   0.633   9.397   9.374
 1093W        W 8402   2.497   5.610   8.898
 1094W        W 8403  14.828   9.710   7.441
 1095W        W 8404  19.177   5.161   8.779
 1096W        W 8405   9.864   7.007   6.737
 1097W        W 8406   0.253   3.934   8.409
 1098W        W 8407   8.026   3.555   7.581
 1099W        W 8408  13.508   0.122   0.024
 1100W        W 8409  11.885   5.495   6.552
 1101W        W 8410  13.540   3.126   8.352
 1102W        W 8411  19.972   4.255   8.090
 1103W        W 8412  11.080   7.912   9.336
 1104W        W 8413  14.516   4.208   0.548
 1105W        W 8414   4.192   2.563   7.152
 1106W        W 8415  12.382   6.305   6.887
 1107W        W 8416   0.894   8.915   0.082
 1108W        W 8417  13.476   4.493   9.612
 1109W        W 8418  11.585   3.833   9.311
 1110W        W 8419  10.722   1.253   9.335
 1111W        W 8420  10.501   1.140   0.422
 1112W        W 8421  10.719   8.071   7.043
 1113W        W 8422  10.099   0.586   7.157
 1114W        W 8423  18.214   6.300   0.371
 1115W        W 8424  18.729   8.201   7.163
 1116W        W 8425   4.787   7.002   0.232
 1117W        W 8426  19.571   9.441   0.232
 1118W        W 8427  11.245   1.148   0.069
 1119W        W 8428   0.899   9.365   9.822
 1120W        W 8429   5.100   4.887   7.829
 1121W        W 8430   5.553   4.436   7.470
 1122W        W 8431  10.252   4.686   9.884
 1123W        W 8432   5.215   0.598   9.580
 1124W        W 8433   1.974   2.103   7.989
 1125W        W 8434  13.115   7.834   9.912
 1126W        W 8435   9.725   4.988   6.784
 1127W        W 8436  14.825   4.608   0.771
 1128W        W 8437   2.469   4.210   9.505
 1129W        W 8438   1.396   4.918   8.260
 1130W        W 8439  12.856   2.701   9.898
 1131W        W 8440  10.994   3.711   9.024
 1132W        W 8441   6.491   6.706   6.492
 1133W        W 8442   5.148   2.707   8.580
 1134W        W 8443   2.949   2.323   7.416
 1135W        W 8444   1.621   0.154   6.919
 1136W        W 8445  17.843   1.799   7.166
 1137W        W 8446  17.803   3.216   0.981
 1138W        W 8447  14.780   8.324   0.775
 1139W        W 8448  13.796   6.547   0.848
 1140W        W 8449   8.857   3.147   8.434
 1141W        W 8450   5.061   6.465   6.967
 1142W        W 8451  16.531   2.217   8.115
 1143W        W 8452  16.230   6.220   9.652
 1144W        W 8453  18.152   8.318   8.491
 1145W        W 8454  15.143   5.508   8.333
 1146W        W 8455   0.356   7.678   8.482
 1147W        W 8456   5.355   8.076   7.981
 1148W        W 8457  18.610   2.562   6.707
 1149W        W 8458   8.679   1.700   0.676
 1150W        W 8459   9.906   9.820   8.449
 1151W        W 8460   7.110   7.054   7.164
 1152W        W 8461  19.656   0.781   7.758
 1153W        W 8462  17.724   4.240   7.223
 1154W        W 8463   5.720   6.093   0.054
 1155W        W 8464  13.844   9.773   9.449
 1156W        W 8465  16.809   9.578   0.463
 1157W        W 8466   4.285   7.940   7.434
 1158W        W 8467   4.464   3.081   6.210
 1159W        W 8468   8.502   8.010   8.611
 1160W        W 8469  17.103   9.869   8.858
 1161W        W 8470   8.517   8.283   0.804
 1162W        W 8471   5.770   4.250   6.384
 1163W        W 8472  17.173   0.147   6.657
 1164W        W 8473  18.348   9.325   8.524
 1165W        W 8474  10.188   7.147   7.172
 1166W        W 8475   7.863   2.078   9.354
 1167W        W 8476  15.749   3.401   9.680
 1168W        W 8477   1.830   3.980   0.225
 1169W        W 8478   5.597   5.761   7.431
 1170W        W 8479   9.220   3.455   6.852
 1171W        W 8480  14.231   7.575   7.211
 1172W        W 8481   9.360   7.717   9.984
 1173W        W 8482  18.976   9.085   6.224
 1174W        W 8483  17.191   3.823   7.622
 1175W        W 8484   6.922   0.374   7.051
 1176W        W 8485   6.471   4.741   0.273
 1177W        W 8486  13.339   4.936   9.283
 1178W        W 8487   9.073   9.251   7.025
 1179W        W 8488   9.715   7.265   0.579
 1180W        W 8489   8.258   4.582   8.001
 1181W        W 8490  18.789   7.448   0.560
 1182W        W 8491  18.124   4.812   6.349
 1183W        W 8492   8.124   1.816   7.828
 1184W        W 8493  16.387   9.152   0.368
 1185W        W 8494  18.233   1.654   7.903
 1186W        W 8495  14.089   5.078   6.561
 1187W        W 8496  14.089   6.660   7.092
 1188W        W 8497  12.629   8.427   9.527
 1189W        W 8498  13.331   3.219   0.961
 1190W        W 8499  10.272   5.804   8.792
 1191W        W 8500  12.598   9.304   8.343
 1192W        W 8501  13.968   0.470   5.914
 1193W        W 8502  13.858   4.553   6.578
 1194W        W 8503  11.068   7.636   6.266
 1195W        W 8504   2.532   6.448   9.299
 1196W        W 8505  10.052   2.171   8.393
 1197W        W 8506  13.437   7.072   6.364
 1198W        W 8507  17.234   3.923   8.552
 1199W        W 8508  13.788   8.159   7.829
 1200W        W 8509  15.705   2.722   6.672
 1201W        W 8510  19.461   4.631   6.904
 1202W        W 8511   5.093   5.439   9.436
 1203W        W 8512  17.338   3.350   7.791
 1204W        W 8513  14.727   8.976   9.274
 1205W        W 8514   4.336   7.896   9.436
 1206W        W 8515   3.306   6.685   6.599
 1207W        W 8516   2.052   5.435   0.220
 1208W        W 8517   4.320   2.748   9.096
 1209W        W 8518  16.913   0.711   8.760
 1210W        W 8519   3.210   7.950   9.692
 1211W        W 8520  19.461   6.958   8.534
 1212W        W 8521  19.888   9.432   7.290
 1213W        W 8522  10.667   9.234   8.812
 1214W        W 8523  14.175   4.193   6.232
 1215W        W 8524  16.928   2.499   8.660
 1216W        W 8525   9.781   1.141   6.584
 1217W        W 8526   6.832   2.561   0.765
 1218W        W 8527  15.857   3.734   0.108
 1219W        W 8528  16.158   2.664   5.922
 1220W        W 8529  17.325   2.505   6.305
 1221W        W 8530   3.573   3.134   7.015
 1222W        W 8531  17.178   5.423   0.231
 1223W        W 8532  12.622   1.694   7.909
 1224W        W 8533  16.974   9.783   8.346
 1225W        W 8534  19.572   3.500   6.369
 1226W        W 8535   1.739   3.475   0.090
 1227W        W 8536   1.198   3.520   6.485
 1228W        W 8537   7.605   6.372   8.569
 1229W        W 8538   6.609   9.603   9.615
 1230W        W 8539   9.128   4.897   7.767
 1231W        W 8540  15.076   3.676   7.119
 1232W        W 8541   8.750   4.658   8.862
 1233W        W 8542  10.390   4.473   8.992
 1234W        W 8543  19.184   9.149   8.579
 1235W        W 8544   9.862   9.300   9.325
 1236W        W 8545  15.772   2.245   6.442
 1237W        W 8546   3.558   9.265   0.949
 1238W        W 8547   7.976   4.453   8.420
 1239W        W 8548   6.178   1.497   0.804
 1240W        W 8549  18.892   5.642   7.940
 1241W        W 8550   0.929   6.100   6.517
 1242W        W 8551  18.798   4.706   9.588
 1243W        W 8552  11.344   0.390   7.025
 1244W        W 8553  11.107   9.887   7.050
 1245W        W 8554  11.277   2.079   0.436
 1246W        W 8555   0.555   2.963   8.800
 1247W        W 8556   1.142   8.470   6.066
 1248W        W 8557   3.327   2.557   9.207
 1249W        W 8558   4.642   6.945   9.708
 1250W        W 8559   4.902   5.215   7.485
 1251W        W 8560   5.668   7.398   7.527
 1252W        W 8561   8.250   3.999   8.424
 1253W        W 8562   3.122   2.728   9.663
 1254W        W 8563  17.889   7.215   7.158
 1255W        W 8564   2.532   4.532   0.294
 1256W        W 8565   8.048   2.317   7.923
 1257W        W 8566   9.338   5.380   5.719
 1258W        W 8567   3.651   4.619   6.723
 1259W        W 8568  12.389   3.336   7.190
 1260W        W 8569   0.078   2.777   9.934
 1261W        W 8570   6.104   0.653   0.062
 1262W        W 8571   7.495   9.716   7.600
 1263W        W 8572   3.026   0.152   6.773
 1264W        W 8573  18.912   1.290   7.460
 1265W        W 8574  16.329   3.108   6.656
 1266W        W 8575  16.076   8.084   7.791
 1267W        W 8576   3.992   6.429   9.385
 1268W        W 8577  10.600   3.686   8.216
 1269W        W 8578  11.778   7.382   8.899
 1270W        W 8579   4.068   3.252   7.079
 1271W        W 8580   3.350   3.908   8.670
 1272W        W 8581   1.753   5.982   8.373
 1273W        W 8582  19.415   6.497   7.782
 1274W        W 8583   9.193   3.758   9.693
 1275W        W 8584   4.132   5.594   7.506
 1276W        W 8585   3.970   4.230   7.750
 1277W        W 8586   6.162   7.036   0.206
 1278W        W 8587  18.193   4.238   9.428
 1279W        W 8588  15.890   4.365   8.814
 1280W        W 8589   9.063   9.065   9.774
 1281W        W 8590   3.230   5.698   5.751
 1282W        W 8591   2.835   9.372   7.804
 1283W        W 8592  14.348   2.526   7.059
 1284W        W 8593   6.512   1.679   6.959
 1285W        W 8594  16.996   4.879   0.805
 1286W        W 8595  19.587   1.248   8.527
 1287W        W 8596  19.981   1.069   8.819
 1288W        W 8597  12.777   5.808   6.210
 1289W        W 8598  16.065   6.710   8.096
 1290W        W 8599   2.221   7.068   6.151
 1291W        W 8600   4.883   4.579   0.699
 1292W        W 8601  12.680   5.186   7.350
 1293W        W 8602  11.912   4.872   9.479
 1294W        W 8603   9.997   0.983   1.021
 1295W        W 8604  14.515   8.935   0.193
 1296W        W 8605   2.272   3.662   6.988
 1297W        W 8606  12.292   2.196   0.729
 1298W        W 8607   9.728   2.465   8.682
 1299W        W 8608   5.832   8.419   0.205
 1300W        W 8609   2.097   0.264   7.671
 1301W        W 8610  12.273   3.950   0.058
 1302W        W 8611   8.000   9.049   9.742
 1303W        W 8612  11.985   3.016   9.708
 1304W        W 8613   6.297   2.661   7.049
 1305W        W 8614   9.605   2.727   0.290
 1306W        W 8615   0.435   2.258   9.283
 1307W        W 8616   8.097   7.515   0.993
 1308W        W 8617  18.226   7.069   6.641
 1309W        W 8618  17.168   3.436   9.463
 1310W        W 8619   9.174   5.010   0.200
 1311W        W 8620   1.188   2.827   0.563
 1312W        W 8621  19.192   4.219   8.916
 1313W        W 8622  12.060   9.846   6.727
 1314W        W 8623  18.866   3.160   0.500
 1315W        W 8624   3.442   7.871   8.354
 1316W        W 8625  12.588   1.100   8.385
 1317W        W 8626   0.874   3.542   7.478
 1318W        W 8627  19.243   2.086   6.097
 1319W        W 8628  11.232   4.842   7.541
 1320W        W 8629   9.130   8.190   9.819
 1321W        W 8630  18.161   0.782   7.917
 1322W        W 8631   2.814   7.020   7.538
 1323W        W 8632   9.843   6.443   7.580
 1324W        W 8633   1.360   2.760   9.799
 1325W        W 8634  12.708   8.236   6.542
 1326W        W 8635  13.719   3.100   7.452
 1327W        W 8636  14.798   1.078   7.894
 1328W        W 8637   8.884   7.455   5.907
 1329W        W 8638   0.778   5.721   0.679
 1330W        W 8639  16.996   0.296   6.215
 1331W        W 8640   9.025   0.247   7.245
 1332W        W 8641  11.338   0.785   8.893
 1333W        W 8642  13.566   2.702   7.182
 1334W        W 8643  19.431   1.238   6.675
 1335W        W 8644   0.882   9.009   8.286
 1336W        W 8645  17.207   6.405   9.786
 1337W        W 8646  10.480   6.714   8.989
 1338W        W 8647  11.060   8.608   6.571
 1339W        W 8648   2.905   7.734   8.398
 1340W        W 8649  15.378   1.852   8.985
 1341W        W 8650  14.909   7.907   6.877
 1342W        W 8651  13.159   0.268   7.062
 1343W        W 8652  15.277   7.845   9.678
 1344W        W 8653  14.335   3.211   7.900
 1345W        W 8654   8.660   7.678   0.050
 1346W        W 8655  15.931   4.093   6.374
 1347W        W 8656  15.014   6.425   6.386
 1348W        W 8657  15.273   6.008   6.298
 1349W        W 8658   2.794   5.995   9.176
 1350W        W 8659  10.807   1.363   8.336
 1351W        W 8660   5.371   8.546   0.376
 1352W        W 8661   4.150   8.927   9.876
 1353W        W 8662   1.526   1.693   7.779
 1354W        W 8663   9.945   6.726   8.974
 1355W        W 8664   6.332   8.033   6.404
 1356W        W 8665  14.797   2.796   7.117
 1357W        W 8666  14.602   5.123   9.717
 1358W        W 8667  14.526   8.507   6.835
 1359W        W 8668   5.121   1.256   0.077
 1360W        W 8669  15.236   2.761   6.876
 1361W        W 8670  19.323   3.021   6.409
 1362W        W 8671   7.973   9.846   9.393
 1363W        W 8672   1.654   0.827   6.428
 1364W        W 8673  16.365   4.972   6.161
 1365W        W 8674   6.504   9.240   0.746
 1366W        W 8675   7.017   0.886   7.012
 1367W        W 8676   2.507   6.752   7.087
 1368W        W 8677   3.727   0.203   8.935
 1369W        W 8678   7.003   8.785   9.723
 1370W        W 8679   8.008   3.526   8.405
 1371W        W 8680   9.375   1.216   8.313
 1372W        W 8681  15.450   5.253   9.613
 1373W        W 8682  19.546   2.171   7.499
 1374W        W 8683  16.138   6.371   5.961
 1375W        W 8684   2.937   7.426   8.848
 1376W        W 8685   0.265   2.056   0.689
 1377W        W 8686   3.050   6.393   9.368
 1378W        W 8687  12.240   1.281   9.111
 1379W        W 8688   7.146   2.852   6.774
 1380W        W 8689   3.264   1.078   8.062
 1381W        W 8690   3.240   5.508   0.676
 1382W        W 8691   2.569   4.117   6.973
 1383W        W 8692   4.124   7.366   8.005
 1384W        W 8693   3.885   6.075   7.595
 1385W        W 8694  14.396   9.854   7.668
 1386W        W 8695   5.928   3.550   7.362
 1387W        W 8696   1.333   7.607   8.904
 1388W        W 8697  19.894   6.346   7.619
 1389W        W 8698   8.031   1.228   7.184
 1390W        W 8699  16.912   8.211   9.095
 1391W        W 8700  15.761   5.660   9.785
 1392W        W 8701  13.059   4.668   8.325
 1393W        W 8702  18.193   6.056   6.460
 1394W        W 8703  11.521   2.583   9.169
 1395W        W 8704   3.791   0.764   0.602
 1396W        W 8705  19.938   6.789   8.363
 1397W        W 8706  18.187   9.134   8.060
 1398W        W 8707  10.126   6.052   7.352
 1399W        W 8708  19.936   7.747   9.333
 1400W        W 8709   8.542   2.079   6.207
 1401W        W 8710   9.662   5.401   7.075
 1402W        W 8711   1.354   8.781   0.646
 1403W        W 8712  14.064   7.613   0.685
 1404W        W 8713   3.122   6.694   8.929
 1405W        W 8714  16.617   6.007   8.998
 1406W        W 8715  10.619   1.214   8.837
 1407W        W 8716  10.540   4.585   9.470
 1408W        W 8717   5.407   4.163   9.041
 1409W        W 8718   2.941   5.498   9.123
 1410W        W 8719   9.852   3.754   9.562
 1411W        W 8720  10.735   2.904   0.120
 1412W        W 8721  14.050   1.197   9.749
 1413W        W 8722   9.524   5.518   7.825
 1414W        W 8723   8.118   6.487   7.987
 1415W        W 8724  19.427   5.972   0.865
 1416W        W 8725   3.406   0.371   7.056
 1417W        W 8726   1.824   0.320   6.355
 1418W        W 8727  16.755   8.821   8.050
 1419W        W 8728  19.490   8.674   0.142
 1420W        W 8729   7.735   4.582   8.854
 1421W        W 8730   9.057   8.544   6.633
 1422W        W 8731  10.650   0.562   7.726
 1423W        W 8732   2.266   2.065   7.564
 1424W        W 8733  19.187   6.551   8.827
 1425W        W 8734  11.620   4.797   0.764
 1426W        W 8735  14.846   0.874   8.418
 1427W        W 8736  18.396   3.039   9.726
 1428W        W 8737  15.951   8.417   8.194
 1429W        W 8738   8.532   3.041   7.129
 1430W        W 8739  15.329   7.850   8.281
 1431W        W 8740  10.502   9.758   8.280
 1432W        W 8741  12.651   0.659   8.667
 1433W        W 8742   6.455   6.850   8.340
 1434W        W 8743   8.506   5.165   8.013
 1435W        W 8744  19.759   0.561   8.832
 1436W        W 8745   7.727   2.166   6.610
 1437W        W 8746  13.953   0.648   7.894
 1438W        W 8747   2.765   5.499   7.485
 1439W        W 8748  17.408   4.135   6.842
 1440W        W 8749  13.794   8.834   8.944
 1441W        W 8750  10.348   6.868   6.774
 1442W        W 8751   3.939   7.293   8.834
 1443W        W 8752  10.038   3.727   1.166
 1444W        W 8753  13.016   8.928   7.862
 1445W        W 8754  13.580   8.386   0.871
 1446W        W 8755  19.668   6.497   8.702
 1447W        W 8756  12.352   2.664   8.664
 1448W        W 8757  15.546   8.382   6.482
 1449W        W 8758  12.396   3.297   6.197
 1450W        W 8759   8.157   7.756   0.246
 1451W        W 8760   1.289   2.304   0.565
 1452W        W 8761   4.637   2.128   9.053
 1453W        W 8762   6.865   4.215   6.148
 1454W        W 8763   4.923   8.611   9.010
 1455W        W 8764  12.743   2.281   0.199
 1456W        W 8765   3.585   8.391   8.392
 1457W        W 8766  10.156   9.676   7.468
 1458W        W 8767   5.232   1.795   8.294
 1459W        W 8768   2.111   9.523   5.914
 1460W        W 8769   5.476   4.512   7.976
 1461W        W 8770  16.636   9.692   9.012
 1462W        W 8771   3.704   7.326   0.208
 1463W        W 8772  10.043   3.840   0.208
 1464W        W 8773  15.695   0.675   9.644
 1465W        W 8774  10.491   1.569   6.323
 1466W        W 8775   3.951   4.168   6.807
 1467W        W 8776  10.074   3.616   0.657
 1468W        W 8777  12.297   4.862   0.430
 1469W        W 8778  10.091   3.233   7.706
 1470W        W 8779  17.579   4.614   0.735
 1471W        W 8780   5.331   5.703   9.833
 1472W        W 8781   7.064   0.467   0.182
 1473W        W 8782  18.623   9.658   7.221
 1474W        W 8783   8.059   2.600   8.337
 1475W        W 8784  13.787   7.853   8.448
 1476W        W 8785  19.403   8.812   6.150
 1477W        W 8786   8.058   4.891   7.277
 1478W        W 8787   8.554   7.003   7.163
 1479W        W 8788   6.672   3.707   6.448
 1480W        W 8789   4.593   5.353   9.433
 1481W        W 8790  11.631   8.969   6.581
 1482W        W 8791  14.523   1.677   8.205
 1483W        W 8792  16.935   4.673   7.059
 1484W        W 8793  17.854   5.563   7.963
 1485W        W 8794   6.369   2.165   6.941
 1486W        W 8795   7.111   4.485   9.794
 1487W        W 8796   3.621   0.679   9.703
 1488W        W 8797  19.436   5.490   6.768
 1489W        W 8798  15.510   7.153   7.543
 1490W        W 8799   8.168   7.221   8.482
 1491W        W 8800  17.844   2.711   8.196
 1492W        W 8801   4.399   7.826   8.256
 1493W        W 8802   4.740   8.134   9.676
 1494W        W 8803  15.537   0.216   0.927
 1495W        W 8804  10.012   9.212   7.633
 1496W        W 8805   3.080   8.260   7.699
 1497W        W 8806   1.874   7.054   0.417
 1498W        W 8807  14.399   1.165   6.554
 1499W        W 8808   3.296   2.729   7.202
 1500W        W 8809  17.973   0.812   6.884
 1501W        W 8810  15.496   6.608   9.441
 1502W        W 8811  18.305   6.476   8.722
 1503W        W 8812  17.945   3.717   8.376
 1504W        W 8813   9.379   2.237   0.430
 1505W        W 8814   1.655   2.944   9.414
 1506W        W 8815   6.612   1.202   9.114
 1507W        W 8816   9.558   7.677   6.603
 1508W        W 8817  10.466   1.453   7.657
 1509W        W 8818  17.047   7.566   8.401
 1510W        W 8819   4.477   0.153   7.382
 1511W        W 8820  15.375   0.334   9.995
 1512W        W 8821   9.570   3.349   9.707
 1513W        W 8822  17.397   2.586   8.429
 1514W        W 8823   5.147   6.157   7.878
 1515W        W 8824  15.293   3.280   8.994
 1516W        W 8825   4.032   8.147   8.386
 1517W        W 8826   4.357   8.425   9.948
 1518W        W 8827  10.130   4.086   6.546
 1519W        W 8828   3.889   8.858   6.214
 1520W        W 8829  11.173   2.834   8.023
 1521W        W 8830   2.201   3.630   0.314
 1522W        W 8831  19.147   5.501   9.178
 1523W        W 8832  10.567   0.632   0.618
 1524W        W 8833  17.028   2.938   7.895
 1525W        W 8834   9.311   7.401   7.530
 1526W        W 8835  17.386   2.136   8.171
 1527W        W 8836  12.894   2.735   0.421
 1528W        W 8837   4.157   8.589   9.469
 1529W        W 8838  10.577   3.827   6.517
 1530W        W 8839  18.271   7.542   8.873
 1531W        W 8840  12.386   2.678   9.658
 1532W        W 8841   5.378   3.028   9.804
 1533W        W 8842   1.876   4.921   8.455
 1534W        W 8843   1.209   7.469   6.985
 1535W        W 8844   2.119   5.087   7.646
 1536W        W 8845   0.490   8.823   7.406
 1537W        W 8846  13.960   4.255   7.541
 1538W        W 8847   9.895   3.748   6.226
 1539W        W 8848  14.996   0.213   6.724
 1540W        W 8849   5.622   4.021   0.972
 1541W        W 8850  13.864   6.820   6.221
 1542W        W 8851  12.357   7.057   6.317
 1543W        W 8852   8.707   1.030   8.933
 1544W        W 8853   9.115   5.841   7.678
 1545W        W 8854   8.646   2.635   0.353
 1546W        W 8855   6.847   2.098   9.403
 1547W        W 8856   7.827   6.592   7.569
 1548W        W 8857  19.063   7.866   9.710
 1549W        W 8858   5.051   8.959   9.858
 1550W        W 8859   3.382   6.879   0.215
 1551W        W 8860  13.915   1.546   7.013
 1552W        W 8861   3.674   2.073   0.535
 1553W        W 8862   6.079   6.955   7.997
 1554W        W 8863  11.066   7.167   6.102
 1555W        W 8864  12.487   3.168   0.940
 1556W        W 8865  18.913   6.952   9.807
 1557W        W 8866  14.005   4.504   8.869
 1558W        W 8867  14.402   0.779   7.685
 1559W        W 8868   3.524   8.064   7.881
 1560W        W 8869   2.004   8.829   0.009
 1561W        W 8870  14.628   5.490   7.495
 1562W        W 8871   3.686   9.259   7.425
 1563W        W 8872   3.153   1.381   7.029
 1564W        W 8873  10.264   7.188   0.517
 1565W        W 8874   8.267   3.704   8.001
 1566W        W 8875  16.954   2.161   6.376
 1567W        W 8876  14.558   5.107   6.313
 1568W        W 8877  19.103   2.026   9.274
 1569W        W 8878  18.632   9.652   9.887
 1570W        W 8879   9.519   6.784   0.983
 1571W        W 8880   5.034   0.934   8.199
 1572W        W 8881  15.479   2.751   7.850
 1573W        W 8882   2.264   5.116   8.158
 1574W        W 8883  14.914   5.891   9.223
 1575W        W 8884  19.846   8.908   8.325
 1576W        W 8885   1.619   6.574   6.282
 1577W        W 8886   2.567   3.547   9.673
 1578W        W 8887  15.954   2.993   9.912
 1579W        W 8888   9.711   1.239   9.204
 1580W        W 8889  15.052   2.741   8.124
 1581W        W 8890   3.342   5.682   8.853
 1582W        W 8891  14.051   2.995   9.194
 1583W        W 8892   7.650   0.035   7.994
 1584W        W 8893  19.362   0.717   9.126
 1585W        W 8894   7.431   7.419   7.340
 1586W        W 8895   6.116   6.964   9.707
 1587W        W 8896   9.571   7.776   7.769
 1588W        W 8897  19.095   6.514   0.148
 1589W        W 8898   3.020   2.677   8.809
 1590W        W 8899  17.725   2.630   9.767
 1591W        W 8900  15.720   5.510   0.805
 1592W        W 8901  18.944   9.784   9.497
 1593W        W 8902   1.176   7.948   0.709
 1594W        W 8903  19.587   7.838   9.780
 1595W        W 8904  15.466   9.237   0.470
 1596W        W 8905   8.501   6.822   0.269
 1597W        W 8906   8.249   3.682   8.853
 1598W        W 8907   2.764   3.181   8.784
 1599W        W 8908   0.563   4.847   7.477
 1600W        W 8909  16.618   6.588   0.564
 1601W        W 8910   2.031   2.663   0.539
 1602W        W 8911   8.131   4.252   0.616
 1603W        W 8912  18.669   8.330   0.408
 1604W        W 8913   2.158   9.596   6.626
 1605W        W 8914  19.231   1.512   0.478
 1606W        W 8915   6.266   5.076   6.493
 1607W        W 8916  10.275   8.921   6.845
 1608W        W 8917  17.670   3.544   0.543
 1609W        W 8918   3.284   4.956   7.849
 1610W        W 8919   0.276   9.684   0.661
 1611W        W 8920   0.209   0.680   7.048
 1612W        W 8921  10.197   4.800   5.832
 1613W        W 8922   5.732   0.742   0.677
 1614W        W 8923   7.250   7.353   9.309
 1615W        W 8924  10.137   7.684   8.929
 1616W        W 8925  18.426   9.940   0.254
 1617W        W 8926  18.895   6.344   9.186
 1618W        W 8927  13.348   6.456   9.696
 1619W        W 8928   7.642   5.066   0.184
 1620W        W 8929  14.357   7.229   6.833
 1621W        W 8930  18.254   2.554   7.919
 1622W        W 8931  18.691   6.081   6.290
 1623W        W 8932   6.749   0.389   6.326
 1624W        W 8933  17.815   1.306   0.554
 1625W        W 8934   2.418   5.754   0.427
 1626W        W 8935  19.187   1.102   0.784
 1627W        W 8936   9.148   8.743   0.178
 1628W        W 8937   8.013   7.777   9.759
 1629W        W 8938   5.671   2.627   9.944
 1630W        W 8939  10.212   9.847   6.424
 1631W        W 8940   0.968   0.588   7.555
 1632W        W 8941  13.424   9.442   7.383
 1633W        W 8942  14.786   9.660   8.480
 1634W        W 8943  12.579   2.536   6.846
 1635W        W 8944  13.642   4.055   9.874
 1636W        W 8945  18.617   9.398   9.443
 1637W        W 8946  19.228   0.455   0.161
 1638W        W 8947   5.593   4.900   7.641
 1639W        W 8948  11.119   0.658   7.427
 1640W        W 8949   3.159   2.436   6.350
 1641W        W 8950   5.460   5.373   8.494
 1642W        W 8951  16.996   4.953   0.299
 1643W        W 8952  13.855   9.295   9.205
 1644W        W 8953  13.146   2.155   7.319
 1645W        W 8954   0.501   1.193   9.670
 1646W        W 8955  19.026   4.600   0.395
 1647W        W 8956  11.488   2.152   8.315
 1648W        W 8957   6.232   4.901   9.507
 1649W        W 8958  18.648   8.398   9.386
 1650W        W 8959   6.193   4.527   9.890
 1651W        W 8960  14.323   8.143   6.537
 1652W        W 8961  15.356   7.340   9.782
 1653W        W 8962   8.553   8.519   8.686
 1654W        W 8963   3.794   4.123   9.533
 1655W        W 8964   1.597   4.102   7.307
 1656W        W 8965  10.232   7.001   9.334
 1657W        W 8966   3.953   4.967   7.099
 1658W        W 8967   8.293   9.752   6.955
 1659W        W 8968   7.759   2.981   9.190
 1660W        W 8969   5.830   7.297   8.359
 1661W        W 8970   5.659   1.250   7.922
 1662W        W 8971  10.545   3.223   7.977
 1663W        W 8972  14.132   8.702   6.560
 1664W        W 8973  15.180   6.840   9.786
 1665W        W 8974  15.006   3.567   8.680
 1666W        W 8975  18.327   7.303   0.358
 1667W        W 8976  12.128   0.277   0.715
 1668W        W 8977  15.482   0.168   6.487
 1669W        W 8978  19.394   9.158   9.070
 1670W        W 8979   6.216   5.841   0.723
 1671W        W 8980  17.296   1.703   1.038
 1672W        W 8981   7.831   8.917   9.265
 1673W        W 8982   9.287   1.083   7.770
 1674W        W 8983  11.829   1.769   7.475
 1675W        W 8984   3.294   9.375   9.705
 1676W        W 8985  12.213   2.183   0.212
 1677W        W 8986  18.666   7.254   9.112
 1678W        W 8987   7.605   1.645   6.479
 1679W        W 8988  13.878   9.677   1.001
 1680W        W 8989  16.311   7.892   0.429
 1681W        W 8990   3.105   9.835   5.994
 1682W        W 8991  12.939   0.681   7.312
 1683W        W 8992   7.306   6.639   7.501
 1684W        W 8993  19.741   7.400   8.563
 1685W        W 8994   3.071   6.239   6.520
 1686W        W 8995   5.300   6.364   9.599
 1687W        W 8996   3.009   8.387   6.224
 1688W        W 8997  19.083   3.836   7.949
 1689W        W 8998   3.906   0.909   7.019
 1690W        W 8999   3.263   5.405   7.582
 1691W        W 9000  19.528   4.221   9.739
 1692W        W 9001   0.845   3.893   0.283
 1693W        W 9002   2.225   6.008   8.067
 1694W        W 9003  10.164   7.346   9.747
 1695W        W 9004   4.048   4.519   0.303
 1696W        W 9005  14.033   5.001   8.656
 1697W        W 9006  13.746   0.961   0.540
 1698W        W 9007  17.214   4.868   8.617
 1699W        W 9008  14.686   2.069   8.480
 1700W        W 9009  19.915   2.625   6.252
 1701W        W 9010  10.534   3.273   9.801
 1702W        W 9011  11.413   7.204   0.367
 1703W        W 9012  15.608   4.667   8.471
 1704W        W 9013   1.378   2.698   7.374
 1705W        W 9014  16.873   3.671   7.056
 1706W        W 9015  13.453   8.492   6.682
 1707W        W 9016   4.280   8.041   6.602
 1708W        W 9017  19.981   6.289   7.113
 1709W        W 9018  15.009   7.879   0.870
 1710W        W 9019  12.516   4.765   7.620
 1711W        W 9020  11.691   9.524   8.019
 1712W        W 9021  11.031   8.127   6.411
 1713W        W 9022  11.677   5.199   7.492
 1714W        W 9023  12.129   2.587   7.669
 1715W        W 9024   2.658   0.087   0.390
 1716W        W 9025  18.582   6.321   7.150
 1717W        W 9026   1.625   6.700   8.007
 1718W        W 9027  16.664   5.719   0.823
 1719W        W 9028   2.047   2.281   7.155
 1720W        W 9029  18.599   4.474   8.329
 1721W        W 9030   8.824   7.360   7.397
 1722W        W 9031   4.131   6.842   9.665
 1723W        W 9032  15.128   2.382   7.229
 1724W        W 9033  11.523   6.347   6.205
 1725W        W 9034   4.781   3.545   7.847
 1726W        W 9035  13.542   7.379   8.411
 1727W        W 9036  13.972   6.091   0.673
 1728W        W 9037   1.822   8.858   0.466
 1729W        W 9038   4.696   2.678   7.808
 1730W        W 9039   7.109   8.058   8.336
 1731W        W 9040  11.647   5.139   9.863
 1732W        W 9041  11.737   4.274   7.142
 1733W        W 9042   1.865   4.575   7.434
 1734W        W 9043   0.998   2.157   7.277
 1735W        W 9044  19.562   6.377   6.788
 1736W        W 9045   0.381   4.964   8.379
 1737W        W 9046   4.964   0.393   8.777
 1738W        W 9047  14.424   0.233   0.476
 1739W        W 9048   2.910   4.665   8.557
 1740W        W 9049   5.058   3.869   9.329
 1741W        W 9050  15.970   2.611   9.093
 1742W        W 9051   6.236   0.094   0.277
 1743W        W 9052  12.551   7.437   7.865
 1744W        W 9053  15.138   0.968   6.643
 1745W        W 9054  19.809   3.596   9.233
 1746W        W 9055   7.857   2.738   8.770
 1747W        W 9056  19.916   3.516   8.583
 1748W        W 9057  16.340   3.961   6.077
 1749W        W 9058  11.165   7.405   9.460
 1750W        W 9059   8.081   2.507   9.161
 1751W        W 9060   4.382   6.714   0.098
 1752W        W 9061  14.414   0.260   9.980
 1753W        W 9062  14.161   1.761   7.870
 1754W        W 9063   5.291   6.834   6.453
 1755W        W 9064   6.594   8.792   8.048
 1756W        W 9065   2.162   0.687   9.304
 1757W        W 9066   1.732   2.322   7.586
 1758W        W 9067  15.227   0.795   9.780
 1759W        W 9068  17.879   3.103   8.997
 1760W        W 9069   2.345   1.882   9.836
 1761W        W 9070   2.830   7.533   7.456
 1762W        W 9071   5.928   0.090   6.443
 1763W        W 9072   1.892   1.171   8.442
 1764W        W 9073   4.159   4.630   6.619
 1765W        W 9074  15.214   9.753   8.779
 1766W        W 9075   8.980   7.704   0.913
 1767W        W 9076   3.464   3.808   0.838
 1768W        W 9077   1.092   3.077   6.694
 1769W        W 9078   1.528   5.872   0.674
 1770W        W 9079   7.614   4.075   7.591
 1771W        W 9080   0.650   4.055   0.727
 1772W        W 9081  17.582   5.995   9.011
 1773W        W 9082   8.327   0.783   7.537
 1774W        W 9083   9.325   1.630   9.121
 1775W        W 9084  14.647   5.442   8.300
 1776W        W 9085  12.128   7.961   7.234
 1777W        W 9086   5.553   2.594   8.308
 1778W        W 9087   7.352   1.128   6.650
 1779W        W 9088  12.177   2.074   8.835
 1780W        W 9089  10.299   2.525   7.549
 1781W        W 9090  12.182   7.569   9.451
 1782W        W 9091  12.622   6.917   7.918
 1783W        W 9092  14.961   7.225   0.102
 1784W        W 9093  17.318   1.231   8.190
 1785W        W 9094   5.462   7.368   8.774
 1786W        W 9095  11.830   2.533   6.216
 1787W        W 9096  19.236   6.400   0.658
 1788W        W 9097  16.517   1.729   8.445
 1789W        W 9098   4.306   5.913   0.458
 1790W        W 9099   5.706   9.705   9.699
 1791W        W 9100   5.697   6.436   8.711
 1792W        W 9101   1.252   6.475   6.688
 1793W        W 9102  12.208   0.668   8.409
 1794W        W 9103   7.525   4.567   6.659
 1795W        W 9104   8.756   6.905   0.702
 1796W        W 9105   8.504   9.282   8.304
 1797W        W 9106  10.476   6.491   6.466
 1798W        W 9107  16.995   0.815   9.258
 1799W        W 9108   5.469   1.113   8.364
 1800W        W 9109  13.811   7.758   9.292
 1801W        W 9110  15.979   6.341   1.230
 1802W        W 9111  13.650   4.050   9.357
 1803W        W 9112   6.932   3.371   9.236
 1804W        W 9113  19.292   9.608   8.815
 1805W        W 9114   8.304   8.252   0.345
 1806W        W 9115   1.731   4.885   0.241
 1807W        W 9116   7.162   9.926   7.930
 1808W        W 9117   9.997   5.321   8.023
 1809W        W 9118  18.280   8.427   6.672
 1810W        W 9119  19.986   8.614   0.372
 1811W        W 9120  16.297   7.792   7.428
 1812W        W 9121   7.313   2.034   6.238
 1813W        W 9122   4.377   7.583   0.750
 1814W        W 9123  16.482   6.574   9.271
 1815W        W 9124   9.694   4.495   7.799
 1816W        W 9125   7.121   3.050   0.339
 1817W        W 9126  10.366   6.707   0.340
 1818W        W 9127  12.017   7.828   7.724
 1819W        W 9128  17.298   3.641   9.005
 1820W        W 9129   1.605   9.665   8.446
 1821W        W 9130  11.400   3.111   7.385
 1822W        W 9131  10.514   7.492   0.167
 1823W        W 9132   2.115   5.892   7.576
 1824W        W 9133  18.387   6.257   9.185
 1825W        W 9134  15.731   5.763   6.204
 1826W        W 9135   8.464   1.827   8.711
 1827W        W 9136  11.808   4.841   0.273
 1828W        W 9137   9.589   5.425   8.350
 1829W        W 9138   8.380   6.390   0.033
 1830W        W 9139  10.516   5.359   8.867
 1831W        W 9140   1.886   5.045   0.706
 1832W        W 9141   4.784   0.572   9.246
 1833W        W 9142   9.103   9.892   0.900
 1834W        W 9143   7.738   2.540   0.783
 1835W        W 9144   8.618   8.670   6.317
 1836W        W 9145   9.317   4.513   7.471
 1837W        W 9146   1.646   4.654   8.849
 1838W        W 9147  17.590   5.471   8.386
 1839W        W 9148  14.869   8.811   8.568
 1840W        W 9149  17.940   7.776   7.303
 1841W        W 9150  10.431   7.729   0.616
 1842W        W 9151  14.011   4.121   0.741
 1843W        W 9152   1.948   6.607   0.167
 1844W        W 9153   7.224   3.547   9.637
 1845W        W 9154  19.596   5.996   7.849
 1846W        W 9155   6.644   0.925   7.381
 1847W        W 9156  12.524   5.333   9.849
 1848W        W 9157   0.446   5.047   9.292
 1849W        W 9158  19.693   9.016   0.500
 1850W        W 9159  11.635   5.631   9.708
 1851W        W 9160   0.224   9.775   8.632
 1852W        W 9161  11.341   4.342   7.460
 1853W        W 9162  16.827   6.113   7.237
 1854W        W 9163   9.475   0.015   9.757
 1855W        W 9164  10.438   8.443   9.357
 1856W        W 9165  14.349   8.251   9.222
 1857W        W 9166   1.162   4.489   8.534
 1858W        W 9167   6.539   2.991   9.066
 1859W        W 9168   9.179   5.532   9.827
 1860W        W 9169  15.122   2.232   8.274
 1861W        W 9170  16.860   1.276   9.488
 1862W        W 9171  10.470   1.229   0.940
 1863W        W 9172   2.361   5.928   6.673
 1864W        W 9173   0.580   8.565   8.425
 1865W        W 9174   1.545   6.320   0.412
 1866W        W 9175   0.300   5.627   6.378
 1867W        W 9176   0.322   9.751   0.144
 1868W        W 9177   5.362   7.862   8.919
 1869W        W 9178   6.116   7.927   9.447
 1870W        W 9179  12.055   1.563   7.049
 1871W        W 9180   0.919   3.578   6.957
 1872W        W 9181   6.269   3.155   7.267
 1873W        W 9182   6.311   4.767   0.758
 1874W        W 9183   0.747   3.936   9.634
 1875W        W 9184   2.714   9.629   0.097
 1876W        W 9185  18.557   8.717   9.773
 1877W        W 9186   5.100   5.613   7.108
 1878W        W 9187   0.215   1.532   6.106
 1879W        W 9188   9.338   0.156   0.491
 1880W        W 9189   0.080   5.422   9.437
 1881W        W 9190  14.167   2.284   8.747
 1882W        W 9191   8.869   6.242   6.584
 1883W        W 9192  15.079   6.312   9.470
 1884W        W 9193   6.338   1.021   6.484
 1885W        W 9194  12.100   9.751   6.200
 1886W        W 9195   2.363   6.009   8.560
 1887W        W 9196  13.463   1.374   6.848
 1888W        W 9197   6.458   4.173   0.301
 1889W        W 9198   6.371   4.317   0.957
 1890W        W 9199  16.820   6.973   7.827
 1891W        W 9200   9.328   7.256   0.236
 1892W        W 9201   6.737   0.793   9.862
 1893W        W 9202  18.601   6.056   8.766
 1894W        W 9203   5.339   7.331   6.675
 1895W        W 9204   4.950   0.239   9.886
 1896W        W 9205  18.138   5.274   9.323
 1897W        W 9206   8.086   3.205   9.838
 1898W        W 9207   0.178   9.255   5.975
 1899W        W 9208  11.335   3.209   0.790
 1900W        W 9209   4.336   3.255   8.405
 1901W        W 9210   5.209   1.077   7.067
 1902W        W 9211   1.649   8.887   9.645
 1903W        W 9212  17.407   5.491   6.877
 1904W        W 9213   8.175   1.725   0.275
 1905W        W 9214   1.257   4.825   6.184
 1906W        W 9215  10.725   9.932   8.986
 1907W        W 9216  13.584   6.079   8.807
 1908W        W 9217   0.116   9.398   9.375
 1909W        W 9218  19.340   9.803   6.196
 1910W        W 9219  18.106   9.462   9.329
 1911W        W 9220   9.712   9.680   7.176
 1912W        W 9221  19.723   8.221   0.110
 1913W        W 9222   1.275   0.615   9.441
 1914W        W 9223  15.865   4.825   8.021
 1915W        W 9224  16.089   9.962   0.697
 1916W        W 9225  11.831   1.436   9.368
 1917W        W 9226  19.860   5.571   6.123
 1918W        W 9227   7.872   5.489   6.650
 1919W        W 9228  10.911   7.006   8.806
 1920W        W 9229   1.364   1.641   0.285
 1921W        W 9230   1.367   8.177   8.029
 1922W        W 9231  15.388   6.051   9.111
 1923W        W 9232  14.589   7.993   8.852
 1924W        W 9233   5.636   0.799   0.157
 1925W        W 9234  14.065   5.082   7.079
 1926W        W 9235  18.888   0.142   7.201
 1927W        W 9236  10.587   7.994   7.538
 1928W        W 9237  14.851   3.182   7.882
 1929W        W 9238  19.152   6.276   6.153
 1930W        W 9239  16.825   3.877   0.929
 1931W        W 9240  16.337   9.454   6.105
 1932W        W 9241   8.020   7.904   7.330
 1933W        W 9242  11.396   5.121   0.413
 1934W        W 9243  14.311   1.263   7.918
 1935W        W 9244   4.623   9.731   8.174
 1936W        W 9245   0.740   9.217   7.196
 1937W        W 9246  19.858   1.784   0.506
 1938W        W 9247  10.088   5.406   8.522
 1939W        W 9248  19.425   9.935   0.184
 1940W        W 9249  15.030   2.075   9.284
 1941W        W 9250  12.599   3.797   6.320
 1942W        W 9251  13.850   8.827   7.860
 1943W        W 9252   7.700   3.662   9.859
 1944W        W 9253  14.854   0.620   7.516
 1945W        W 9254   6.373   1.700   6.458
 1946W        W 9255   5.690   6.109   7.057
 1947W        W 9256   1.789   1.614   8.211
 1948W        W 9257  19.113   5.646   9.718
 1949W        W 9258  12.096   7.546   8.523
 1950W        W 9259  14.917   9.762   6.944
 1951W        W 9260  17.722   9.560   8.254
 1952W        W 9261  18.163   7.106   9.136
 1953W        W 9262  12.132   5.657   0.488
 1954W        W 9263  17.542   7.765   9.994
 1955W        W 9264  11.988   5.819   9.379
 1956W        W 9265  19.701   0.342   6.815
 1957W        W 9266  13.321   0.395   6.348
 1958W        W 9267   4.128   3.157   9.330
 1959W        W 9268  10.638   3.635   7.702
 1960W        W 9269   1.552   9.012   7.684
 1961W        W 9270  11.808   1.606   0.925
 1962W        W 9271   8.952   4.388   7.136
 1963W        W 9272   9.128   8.770   9.331
 1964W        W 9273  17.234   8.209   9.543
 1965W        W 9274   0.533   2.482   0.595
 1966W        W 9275   3.543   0.709   1.070
 1967W        W 9276  19.768   7.030   0.826
 1968W        W 9277   2.818   0.530   0.600
 1969W        W 9278  13.991   0.689   8.989
 1970W        W 9279  16.588   8.856   7.207
 1971W        W 9280  16.413   3.974   9.180
 1972W        W 9281  17.026   2.907   1.338
 1973W        W 9282   6.991   3.883   9.959
 1974W        W 9283   3.170   7.271   9.298
 1975W        W 9284  19.624   5.650   9.694
 1976W        W 9285  19.783   5.624   8.142
 1977W        W 9286  17.751   8.264   7.324
 1978W        W 9287   1.568   2.111   0.176
 1979W        W 9288  18.396   3.777   6.927
 1980W        W 9289   9.753   3.644   7.710
 1981W        W 9290   3.125   9.765   7.939
 1982W        W 9291  12.518   3.373   6.691
 1983W        W 9292   8.510   4.151   7.987
 1984W        W 9293  17.055   5.393   0.784
 1985W        W 9294   0.333   2.440   6.516
 1986W        W 9295   4.877   7.384   6.887
 1987W        W 9296   9.727   6.300   8.723
 1988W        W 9297  17.961   3.043   9.995
 1989W        W 9298  19.049   1.273   6.351
 1990W        W 9299  17.290   5.889   6.537
 1991W        W 9300  14.036   8.305   8.305
 1992W        W 9301   4.914   7.847   8.142
 1993W        W 9302  17.400   3.909   9.448
 1994W        W 9303  12.154   1.137   8.642
 1995W        W 9304  18.766   7.492   8.680
 1996W        W 9305  10.404   2.759   9.770
 1997W        W 9306  16.131   9.381   8.342
 1998W        W 9307   8.435   7.904   6.563
 1999W        W 9308  13.927   4.473   9.879
 2000W        W 9309   4.771   7.119   8.610
 2001W        W 9310   4.485   1.719   6.062
 2002W        W 9311  19.928   4.099   9.389
 2003W        W 9312   2.700   8.221   9.257
 2004W        W 9313   5.428   6.545   0.057
 2005W        W 9314  17.159   5.235   6.015
 2006W        W 9315   7.385   7.471   7.846
 2007W        W 9316  18.125   9.683   9.887
 2008W        W 9317   0.114   7.192   7.075
 2009W        W 9318  18.656   3.976   6.013
 2010W        W 9319   3.203   8.991   8.892
 2011W        W 9320   8.773   5.375   7.118
 2012W        W 9321  13.784   0.147   6.252
 2013W        W 9322  15.783   6.380   0.355
 2014W        W 9323   3.780   2.806   7.359
 2015W        W 9324   1.557   1.641   1.189
 2016W        W 9325   8.341   5.665   7.049
 2017W        W 9326   7.779   2.775   7.934
 2018W        W 9327  13.335   0.560   9.764
 2019W        W 9328  14.338   8.462   7.320
 2020W        W 9329   6.629   4.961   7.333
 2021W        W 9330   1.911   6.158   6.533
 2022W        W 9331   8.180   3.705   9.690
 2023W        W 9332   7.799   6.101   7.708
 2024W        W 9333  19.975   5.626   8.770
 2025W        W 9334  18.285   7.929   6.488
 2026W        W 9335  19.741   3.225   7.925
 2027W        W 9336  13.051   3.634   0.394
 2028W        W 9337  12.645   0.216   0.575
 2029W        W 9338  12.906   9.410   6.545
 2030W        W 9339  12.452   5.815   9.637
 2031W        W 9340  13.915   4.769   0.778
 2032W        W 9341  13.528   0.128   8.439
 2033W        W 9342  19.443   4.644   8.006
 2034W        W 9343  13.056   1.635   7.062
 2035W        W 9344   2.316   6.902   9.332
 2036W        W 9345  18.571   0.301   9.160
 2037W        W 9346  15.818   8.158   8.620
 2038W        W 9347  15.557   3.586   6.365
 2039W        W 9348   0.598   7.572   0.639
 2040W        W 9349   4.639   8.446   0.424
 2041W        W 9350  16.866   1.229   0.513
 2042W        W 9351   4.209   0.841   0.937
 2043W        W 9352   5.741   8.768   6.122
 2044W        W 9353  14.492   7.024   7.838
 2045W        W 9354  18.840   0.764   8.440
 2046W        W 9355   0.694   8.005   0.903
 2047W        W 9356  13.299   3.618   6.055
 2048W        W 9357   0.833   6.856   8.498
 2049W        W 9358  12.417   9.790   9.055
 2050W        W 9359   6.680   4.936   6.835
 2051W        W 9360  16.980   2.967   8.925
 2052W        W 9361   9.962   6.418   8.277
 2053W        W 9362  19.912   4.104   0.065
 2054W        W 9363  19.674   4.184   7.074
 2055W        W 9364   2.824   2.068   0.558
 2056W        W 9365   8.366   6.074   6.722
 2057W        W 9366  11.465   9.474   6.618
 2058W        W 9367  16.093   8.661   7.229
 2059W        W 9368  10.432   5.265   5.863
 2060W        W 9369   9.161   1.565   7.928
 2061W        W 9370  17.630   3.471   9.944
 2062W        W 9371   3.674   0.228   9.431
 2063W        W 9372   8.741   5.732   6.503
 2064W        W 9373  13.587   8.955   7.409
 2065W        W 9374   1.082   3.966   8.716
 2066W        W 9375  14.370   4.698   0.527
 2067W        W 9376  11.132   2.123   8.674
 2068W        W 9377   3.142   9.346   0.191
 2069W        W 9378   5.415   1.129   0.483
 2070W        W 9379   4.735   5.860   0.177
 2071W        W 9380  14.044   4.099   8.538
 2072W        W 9381  14.604   3.674   7.334
 2073W        W 9382  12.109   0.958   9.475
 2074W        W 9383   6.503   5.172   9.168
 2075W        W 9384   7.268   2.174   9.128
 2076W        W 9385   0.542   5.083   6.459
 2077W        W 9386   1.613   0.455   7.780
 2078W        W 9387  16.982   2.479   7.616
 2079W        W 9388  14.373   0.787   8.184
 2080W        W 9389   1.328   0.320   7.327
 2081W        W 9390  17.489   9.716   6.597
 2082W        W 9391   7.785   0.755   8.604
 2083W        W 9392   0.622   8.939   9.639
 2084W        W 9393   9.899   8.373   9.312
 2085W        W 9394  13.649   4.913   8.275
 2086W        W 9395  13.453   1.612   9.797
 2087W        W 9396   6.625   6.387   8.161
 2088W        W 9397   0.635   8.717   7.928
 2089W        W 9398   4.187   1.299   0.083
 2090W        W 9399   4.932   4.924   9.465
 2091W        W 9400   4.908   6.011   9.709
 2092W        W 9401   0.394   8.487   0.702
 2093W        W 9402  12.370   6.547   9.556
 2094W        W 9403  17.589   8.283   8.550
 2095W        W 9404   4.713   3.026   6.626
 2096W        W 9405   3.479   5.880   7.341
 2097W        W 9406   8.200   3.456   0.690
 2098W        W 9407   8.539   1.329   8.557
 2099W        W 9408  16.744   5.118   6.854
 2100W        W 9409   1.035   2.555   0.168
 2101W        W 9410   0.412   5.523   9.062
 2102W        W 9411   8.921   3.122   6.567
 2103W        W 9412   3.756   5.521   0.708
 2104W        W 9413  19.460   6.474   9.254
 2105W        W 9414  18.741   1.364   0.515
 2106W        W 9415   9.023   7.117   8.695
 2107W        W 9416  11.065   3.287   9.915
 2108W        W 9417  16.520   3.162   0.200
 2109W        W 9418  11.660   4.622   9.841
 2110W        W 9419  15.228   3.315   9.708
 2111W        W 9420  16.935   8.667   0.902
 2112W        W 9421  11.745   8.212   8.984
 2113W        W 9422   9.292   9.692   6.866
 2114W        W 9423  19.211   8.205   7.318
 2115W        W 9424   3.646   7.054   7.865
 2116W        W 9425   1.638   8.427   6.210
 2117W        W 9426  16.253   1.712   8.921
 2118W        W 9427  16.248   2.580   9.857
 2119W        W 9428  19.073   3.932   0.866
 2120W        W 9429  11.337   1.066   7.652
 2121W        W 9430   5.885   7.441   0.033
 2122W        W 9431  19.371   1.357   7.806
 2123W        W 9432  19.521   4.429   0.241
 2124W        W 9433   8.384   4.759   6.088
 2125W        W 9434  10.991   1.592   0.285
 2126W        W 9435   6.246   1.597   8.458
 2127W        W 9436  15.362   4.655   8.929
 2128W        W 9437   8.392   6.815   8.764
 2129W        W 9438  11.940   2.996   7.287
 2130W        W 9439   7.018   6.034   9.182
 2131W        W 9440   3.262   5.879   8.332
 2132W        W 9441   9.957   3.443   7.247
 2133W        W 9442  12.352   4.240   6.343
 2134W        W 9443  15.877   5.948   0.597
 2135W        W 9444  11.458   9.315   0.470
 2136W        W 9445  15.840   9.114   0.089
 2137W        W 9446  19.632   3.416   6.862
 2138W        W 9447   0.123   7.313   0.307
 2139W        W 9448   8.560   9.319   7.018
 2140W        W 9449   4.111   1.503   6.360
 2141W        W 9450   3.938   5.040   9.584
 2142W        W 9451  19.197   1.592   1.034
 2143W        W 9452   7.778   3.105   7.533
 2144W        W 9453   9.570   5.001   7.994
 2145W        W 9454  15.558   1.694   8.174
 2146W        W 9455   3.524   6.366   0.258
 2147W        W 9456   4.268   9.102   8.130
 2148W        W 9457  10.082   9.777   9.283
 2149W        W 9458  12.882   2.795   0.941
 2150W        W 9459  10.951   6.623   9.190
 2151W        W 9460   6.999   4.956   7.722
 2152W        W 9461   1.069   1.721   9.442
 2153W        W 9462   3.700   9.706   9.702
 2154W        W 9463  10.983   3.550   6.303
 2155W        W 9464   4.565   7.079   5.996
 2156W        W 9465  19.469   7.473   8.050
 2157W        W 9466   1.817   3.922   6.838
 2158W        W 9467  19.203   4.100   7.539
 2159W        W 9468   9.924   7.705   8.136
 2160W        W 9469  18.187   1.213   8.176
 2161W        W 9470  19.827   9.037   0.001
 2162W        W 9471  12.933   5.470   6.557
 2163W        W 9472   4.682   3.453   6.932
 2164W        W 9473  13.518   4.473   9.090
 2165W        W 9474  16.842   9.167   9.563
 2166W        W 9475   6.205   3.238   0.753
 2167W        W 9476  10.384   7.535   7.418
 2168W        W 9477  19.369   1.934   0.700
 2169W        W 9478  18.727   2.633   9.742
 2170W        W 9479   6.744   5.008   0.622
 2171W        W 9480  12.422   9.336   6.289
 2172W        W 9481   1.685   0.842   8.123
 2173W        W 9482   5.865   2.349   6.294
 2174W        W 9483   0.438   4.120   9.212
 2175W        W 9484   9.958   6.696   7.135
 2176W        W 9485  17.033   0.833   0.277
 2177W        W 9486   6.526   0.066   9.838
 2178W        W 9487   5.285   0.612   7.313
 2179W        W 9488   4.345   4.442   0.735
 2180W        W 9489  19.396   9.611   9.750
 2181W        W 9490  14.377   4.004   8.143
 2182W        W 9491  10.024   4.490   8.590
 2183W        W 9492  16.336   3.728   0.939
 2184W        W 9493   3.010   9.312   6.224
 2185W        W 9494   0.229   4.576   9.476
 2186W        W 9495  14.799   1.549   6.640
 2187W        W 9496  13.416   6.328   0.564
 2188W        W 9497  15.133   1.862   6.379
 2189W        W 9498   3.104   9.269   0.721
 2190W        W 9499   0.190   2.021   8.857
 2191W        W 9500  13.997   0.192   7.644
 2192W        W 9501   5.948   2.321   8.164
 2193W        W 9502   7.352   2.652   8.871
 2194W        W 9503  18.604   4.448   0.154
 2195W        W 9504  17.857   3.895   9.677
 2196W        W 9505  15.297   9.631   7.256
 2197W        W 9506  12.109   3.656   6.459
 2198W        W 9507   6.399   7.363   8.209
 2199W        W 9508   1.030   4.896   7.744
 2200W        W 9509   1.815   2.203   0.637
 2201W        W 9510  17.588   6.073   8.015
 2202W        W 9511  17.241   7.087   6.475
 2203W        W 9512   7.254   2.230   8.560
 2204W        W 9513   4.717   6.853   8.142
 2205W        W 9514   7.529   2.326   7.941
 2206W        W 9515   5.249   3.621   8.045
 2207W        W 9516   0.754   2.670   9.190
 2208W        W 9517   4.903   8.277   7.832
 2209W        W 9518  16.717   6.367   9.668
 2210W        W 9519   1.949   9.285   9.735
 2211W        W 9520  10.722   8.931   7.114
 2212W        W 9521   7.123   8.152   0.227
 2213W        W 9522  15.366   3.216   7.119
 2214W        W 9523   7.893   9.677   8.377
 2215W        W 9524   7.877   5.368   9.304
 2216W        W 9525  13.970   3.697   6.034
 2217W        W 9526  12.695   0.220   7.854
 2218W        W 9527   0.344   0.715   9.525
 2219W        W 9528  14.375   9.851   8.186
 2220W        W 9529   8.360   6.878   9.770
 2221W        W 9530  18.237   4.121   8.544
 2222W        W 9531  18.703   1.722   9.201
 2223W        W 9532   5.046   9.405   9.578
 2224W        W 9533   1.786   5.478   7.536
 2225W        W 9534  14.055   1.139   7.484
 2226W        W 9535   9.292   0.452   0.020
 2227W        W 9536   2.522   2.179   7.992
 2228W        W 9537   1.696   8.917   8.799
 2229W        W 9538   4.032   6.303   8.472
 2230W        W 9539   5.651   9.874   0.177
 2231W        W 9540   0.523   4.568   0.494
 2232W        W 9541   1.741   2.960   7.833
 2233W        W 9542  13.052   0.129   9.809
 2234W        W 9543   8.311   8.796   8.335
 2235W        W 9544  16.425   6.299   6.906
 2236W        W 9545   2.272   3.214   9.911
 2237W        W 9546   8.362   5.979   8.291
 2238W        W 9547  10.212   7.953   7.162
 2239W        W 9548  13.507   7.889   8.879
 2240W        W 9549  11.093   9.358   0.795
 2241W        W 9550   6.461   2.511   8.871
 2242W        W 9551   4.831   1.590   9.679
 2243W        W 9552  19.377   9.131   0.891
 2244W        W 9553  19.859   5.461   7.632
 2245W        W 9554   1.490   4.079   9.215
 2246W        W 9555   1.393   1.234   8.342
 2247W        W 9556   6.723   3.356   9.713
 2248W        W 9557   9.549   9.723   0.197
 2249W        W 9558  10.669   9.354   5.921
 2250W        W 9559  15.114   0.702   9.279
 2251W        W 9560   3.510   1.879   9.079
 2252W        W 9561   3.315   8.908   6.447
 2253W        W 9562  14.802   2.570   8.526
 2254W        W 9563  10.673   8.207   0.680
 2255W        W 9564  18.610   7.344   6.927
 2256W        W 9565   4.646   6.324   7.990
 2257W        W 9566   6.846   5.137   9.561
 2258W        W 9567   8.665   3.922   0.098
 2259W        W 9568   4.591   3.019   0.324
 2260W        W 9569   7.362   5.262   9.383
 2261W        W 9570   4.757   9.859   6.609
 2262W        W 9571   4.687   7.377   8.160
 2263W        W 9572   7.995   9.173   6.393
 2264W        W 9573  10.937   1.306   0.711
 2265W        W 9574   8.784   3.992   8.434
 2266W        W 9575  13.669   6.930   9.700
 2267W        W 9576  13.042   6.397   0.186
 2268W        W 9577   6.140   9.683   9.970
 2269W        W 9578  19.405   7.816   0.252
 2270W        W 9579  11.133   6.816   6.869
 2271W        W 9580   9.513   0.931   9.849
 2272W        W 9581   5.160   3.726   6.560
 2273W        W 9582   9.525   7.273   7.974
 2274W        W 9583  10.740   5.033   8.536
 2275W        W 9584  17.782   4.566   6.051
 2276W        W 9585   8.313   8.301   7.802
 2277W        W 9586   5.350   7.814   8.425
 2278W        W 9587   7.243   0.795   8.476
 2279W        W 9588  13.638   4.894   7.385
 2280W        W 9589   1.787   4.566   0.862
 2281W        W 9590  14.027   8.337   6.927
 2282W        W 9591  11.614   5.939   6.548
 2283W        W 9592  16.745   4.835   8.855
 2284W        W 9593   7.738   0.127   9.029
 2285W        W 9594   4.058   8.599   6.757
 2286W        W 9595   4.849   0.149   7.940
 2287W        W 9596   7.180   9.438   0.789
 2288W        W 9597   4.152   2.345   6.701
 2289W        W 9598   6.549   0.203   0.687
 2290W        W 9599   2.279   3.750   7.491
 2291W        W 9600  13.532   9.883   7.633
 2292W        W 9601  17.356   3.917   0.336
 2293W        W 9602  11.153   8.481   0.775
 2294W        W 9603  17.685   7.242   5.669
 2295W        W 9604  18.796   9.473   6.526
 2296W        W 9605   9.891   7.410   9.305
 2297W        W 9606   2.765   9.087   8.348
 2298W        W 9607  17.045   5.068   9.804
 2299W        W 9608   1.053   2.037   0.195
 2300W        W 9609  15.754   0.668   0.822
 2301W        W 9610  11.708   8.361   0.713
 2302W        W 9611   2.432   6.199   0.692
 2303W        W 9612  18.097   7.452   6.316
 2304W        W 9613   2.774   5.039   6.443
 2305W        W 9614   0.139   8.781   8.721
 2306W        W 9615   5.182   2.849   6.478
 2307W        W 9616  11.708   8.647   9.245
 2308W        W 9617   4.532   1.237   1.015
 2309W        W 9618  17.662   6.988   7.816
 2310W        W 9619  12.682   7.560   9.305
 2311W        W 9620   1.987   6.464   9.299
 2312W        W 9621  18.261   8.049   9.334
 2313W        W 9622  12.495   9.309   7.843
 2314W        W 9623   9.957   0.307   8.302
 2315W        W 9624  19.659   7.385   0.077
 2316W        W 9625   9.066   1.223   7.311
 2317W        W 9626  16.995   5.939   9.827
 2318W        W 9627   2.568   8.380   6.499
 2319W        W 9628  17.872   8.682   8.741
 2320W        W 9629   5.588   4.005   9.486
 2321W        W 9630  12.311   4.330   7.797
 2322W        W 9631  10.895   4.819   7.136
 2323W        W 9632  15.131   4.209   0.922
 2324W        W 9633  17.553   3.778   7.998
 2325W        W 9634   7.131   6.380   8.368
 2326W        W 9635  16.343   5.178   8.666
 2327W        W 9636  13.808   3.288   7.910
 2328W        W 9637  11.571   0.829   7.194
 2329W        W 9638  14.994   8.192   9.916
 2330W        W 9639   9.218   1.132   9.060
 2331W        W 9640  11.497   0.800   6.691
 2332W        W 9641   5.222   4.205   6.719
 2333W        W 9642   9.692   6.786   8.514
 2334W        W 9643  15.727   9.063   6.950
 2335W        W 9644   1.065   2.913   8.871
 2336W        W 9645   2.387   7.472   8.874
 2337W        W 9646   9.802   2.379   7.366
 2338W        W 9647  12.457   9.339   7.333
 2339W        W 9648   0.772   4.638   8.221
 2340W        W 9649   4.806   0.505   0.376
 2341W        W 9650  11.020   2.526   0.319
 2342W        W 9651   2.490   1.786   6.483
 2343W        W 9652  18.125   3.502   9.214
 2344W        W 9653   6.415   7.433   8.729
 2345W        W 9654   0.274   1.610   6.597
 2346W        W 9655   1.004   1.599   9.925
 2347W        W 9656   8.551   2.533   8.393
 2348W        W 9657  10.562   5.350   7.902
 2349W        W 9658  17.518   0.164   6.240
 2350W        W 9659  17.416   5.091   0.589
 2351W        W 9660  12.164   5.129   6.296
 2352W        W 9661   5.667   7.777   9.669
 2353W        W 9662  14.994   3.551   0.205
 2354W        W 9663   1.560   7.120   8.891
 2355W        W 9664   0.278   2.028   7.875
 2356W        W 9665   8.352   9.602   0.206
 2357W        W 9666   2.700   9.606   9.158
 2358W        W 9667  17.429   4.097   6.350
 2359W        W 9668  10.353   0.904   9.154
 2360W        W 9669  11.999   3.083   6.472
 2361W        W 9670  15.231   9.737   6.547
 2362W        W 9671   3.946   1.073   9.631
 2363W        W 9672  11.625   5.999   7.080
 2364W        W 9673  11.965   8.431   0.228
 2365W        W 9674   4.509   1.529   7.868
 2366W        W 9675  12.122   7.009   7.738
 2367W        W 9676  18.968   0.416   7.633
 2368W        W 9677   1.048   7.571   0.357
 2369W        W 9678   2.476   8.694   9.226
 2370W        W 9679  11.236   1.265   7.180
 2371W        W 9680  18.236   2.118   7.658
 2372W        W 9681   2.793   3.300   7.533
 2373W        W 9682   1.662   0.729   9.128
 2374W        W 9683  14.464   8.460   0.392
 2375W        W 9684   2.178   4.286   6.686
 2376W        W 9685   7.396   0.183   7.004
 2377W        W 9686   7.607   2.511   7.049
 2378W        W 9687  19.697   1.698   7.246
 2379W        W 9688  17.427   2.584   7.897
 2380W        W 9689   4.713   4.729   7.468
 2381W        W 9690  18.681   3.941   8.265
 2382W        W 9691  19.137   1.784   7.975
 2383W        W 9692   4.564   9.167   1.081
 2384W        W 9693  19.454   5.454   7.287
 2385W        W 9694  12.540   7.778   9.774
 2386W        W 9695  12.884   3.167   9.627
 2387W        W 9696  13.572   3.927   7.729
 2388W        W 9697   3.669   2.290   6.497
 2389W        W 9698   4.383   5.463   8.945
 2390W        W 9699   9.650   9.351   6.359
 2391W        W 9700   2.848   3.174   6.607
 2392W        W 9701  17.804   1.782   8.708
 2393W        W 9702  13.158   4.091   0.634
 2394W        W 9703  17.117   7.869   7.796
 2395W        W 9704  18.107   3.122   7.257
 2396W        W 9705  12.857   5.076   7.841
 2397W        W 9706  13.083   7.433   8.101
 2398W        W 9707   1.323   6.967   8.327
 2399W        W 9708   7.726   5.587   8.866
 2400W        W 9709  11.062   0.156   9.315
 2401W        W 9710   3.987   0.599   8.726
 2402W        W 9711   6.141   6.129   6.802
 2403W        W 9712   9.941   4.985   0.721
 2404W        W 9713  18.484   8.903   7.341
 2405W        W 9714  18.296   3.483   8.726
 2406W        W 9715   4.410   4.997   6.294
 2407W        W 9716   5.855   5.139   6.193
 2408W        W 9717  10.518   4.580   0.441
 2409W        W 9718   2.959   9.398   8.733
 2410W        W 9719  18.671   0.999   0.852
 2411W        W 9720  13.735   4.010   6.378
 2412W        W 9721   0.598   9.444   8.482
 2413W        W 9722  12.267   7.303   0.670
 2414W        W 9723  13.402   9.354   6.370
 2415W        W 9724   0.334   9.789   9.636
 2416W        W 9725  15.196   6.543   9.031
 2417W        W 9726   7.388   0.242   9.383
 2418W        W 9727   8.565   5.258   6.205
 2419W        W 9728   7.564   3.894   0.711
 2420W        W 9729  18.065   8.177   7.711
 2421W        W 9730  11.616   0.956   8.070
 2422W        W 9731  16.977   4.590   8.210
 2423W        W 9732   3.070   3.199   0.336
 2424W        W 9733  14.317   9.711   0.735
 2425W        W 9734  18.300   1.648   9.485
 2426W        W 9735  16.213   1.499   6.981
 2427W        W 9736   3.508   4.957   7.378
 2428W        W 9737  15.264   6.343   0.446
 2429W        W 9738   4.966   0.103   0.751
 2430W        W 9739  13.501   3.609   9.095
 2431W        W 9740  19.160   3.328   7.049
 2432W        W 9741  18.414   9.890   9.480
 2433W        W 9742  11.131   7.265   9.949
 2434W        W 9743  15.275   5.556   9.972
 2435W        W 9744  15.832   5.528   7.041
 2436W        W 9745   3.826   8.814   7.674
 2437W        W 9746   8.938   7.930   8.311
 2438W        W 9747   4.561   8.348   9.255
 2439W        W 9748   2.663   3.723   8.276
 2440W        W 9749  11.157   5.981   6.308
 2441W        W 9750   3.940   4.265   6.303
 2442W        W 9751   3.327   6.837   7.514
 2443W        W 9752  18.303   4.199   8.041
 2444W        W 9753  11.307   2.560   6.230
 2445W        W 9754   1.267   2.620   9.303
 2446W        W 9755  14.112   5.106   9.564
 2447W        W 9756   8.639   0.606   6.654
 2448W        W 9757  11.923   1.881   8.375
 2449W        W 9758  18.822   8.286   9.888
 2450W        W 9759  17.395   3.716   7.131
 2451W        W 9760  16.786   2.952   7.443
 2452W        W 9761   9.601   8.628   8.103
 2453W        W 9762   2.549   1.730   8.714
 2454W        W 9763   9.590   9.965   8.866
 2455W        W 9764   6.470   0.534   8.915
 2456W        W 9765   8.241   0.793   7.006
 2457W        W 9766  17.791   2.198   9.487
 2458W        W 9767  17.313   1.242   8.710
 2459W        W 9768   0.766   2.060   9.771
 2460W        W 9769  14.082   6.395   5.879
 2461W        W 9770   0.420   7.253   9.833
 2462W        W 9771  16.270   4.860   9.535
 2463W        W 9772  12.269   0.189   7.590
 2464W        W 9773  13.788   0.586   0.907
 2465W        W 9774   1.251   5.725   6.677
 2466W        W 9775  10.072   7.859   7.663
 2467W        W 9776   3.242   2.843   6.707
 2468W        W 9777  16.847   5.531   8.030
 2469W        W 9778  17.891   8.982   9.408
 2470W        W 9779   4.179   2.029   7.268
 2471W        W 9780   6.266   3.620   7.875
 2472W        W 9781   3.398   0.214   6.414
 2473W        W 9782  12.055   2.192   6.573
 2474W        W 9783   1.595   2.635   0.802
 2475W        W 9784  17.254   5.742   6.040
 2476W        W 9785  18.246   1.646   8.958
 2477W        W 9786   6.308   7.575   0.298
 2478W        W 9787  12.597   9.773   7.598
 2479W        W 9788   1.980   8.646   7.541
 2480W        W 9789  11.870   7.890   0.899
 2481W        W 9790   4.545   5.414   0.351
 2482W        W 9791  12.870   1.420   7.553
 2483W        W 9792  12.508   0.648   7.594
 2484W        W 9793  19.925   4.754   8.207
 2485W        W 9794   6.957   0.860   8.899
 2486W        W 9795  11.149   9.204   8.581
 2487W        W 9796   0.053   2.008   8.355
 2488W        W 9797  15.113   2.347   7.780
 2489W        W 9798   5.088   3.319   9.399
 2490W        W 9799  12.286   4.056   0.594
 2491W        W 9800  18.996   0.663   0.581
 2492W        W 9801   4.988   1.849   7.857
 2493W        W 9802  12.712   4.076   0.900
 2494W        W 9803   4.889   9.082   6.052
 2495W        W 9804  14.530   8.363   8.474
 2496W        W 9805  16.333   3.999   7.138
 2497W        W 9806  11.111   9.849   0.199
 2498W        W 9807   8.051   3.074   0.363
 2499W        W 9808  13.899   4.178   8.045
 2500W        W 9809   1.276   2.130   7.704
 2501W        W 9810   0.485   5.840   9.783
 2502W        W 9811  16.497   1.314   7.618
 2503W        W 9812  17.065   3.828   6.595
 2504W        W 9813  15.003   9.017   0.360
 2505W        W 9814   3.716   7.930   9.544
 2506W        W 9815   5.020   9.320   6.928
 2507W        W 9816   5.216   0.655   0.666
 2508W        W 9817  12.027   6.562   7.482
 2509W        W 9818   4.185   0.436   8.261
 2510W        W 9819   7.862   2.284   9.911
 2511W        W 9820  11.279   8.404   8.980
 2512W        W 9821   0.371   0.279   7.408
 2513W        W 9822  17.439   8.864   8.499
 2514W        W 9823  10.577   1.769   8.067
 2515W        W 9824  10.544   0.754   6.733
 2516W        W 9825  13.229   3.142   8.807
 2517W        W 9826   7.616   4.933   6.998
 2518W        W 9827   4.109   3.586   9.056
 2519W        W 9828  16.720   7.113   6.299
 2520W        W 9829   5.046   7.138   7.864
 2521W        W 9830   7.104   6.168   6.876
 2522W        W 9831   4.073   1.089   7.472
 2523W        W 9832  13.574   7.677   6.612
 2524W        W 9833   8.561   4.612   0.678
 2525W        W 9834  18.286   8.822   8.466
 2526W        W 9835  15.076   5.678   6.638
 2527W        W 9836  17.533   7.462   0.775
 2528W        W 9837  12.997   0.809   7.805
 2529W        W 9838  15.725   0.545   7.823
 2530W        W 9839   9.248   5.645   9.012
 2531W        W 9840  17.727   9.417   7.321
 2532W        W 9841   1.435   3.199   8.669
 2533W        W 9842  13.743   3.015   1.213
 2534W        W 9843  19.477   6.336   7.304
 2535W        W 9844  16.584   7.957   7.817
 2536W        W 9845   9.174   6.553   7.877
 2537W        W 9846  18.283   2.606   9.997
 2538W        W 9847   8.433   4.167   9.711
 2539W        W 9848  16.540   7.969   6.956
 2540W        W 9849   0.154   4.012   7.176
 2541W        W 9850  14.760   3.785   6.181
 2542W        W 9851   4.643   7.900   9.024
 2543W        W 9852  15.969   0.216   6.349
 2544W        W 9853   8.837   3.314   6.085
 2545W        W 9854   8.130   4.052   0.136
 2546W        W 9855  15.607   7.547   9.368
 2547W        W 9856  10.164   7.356   7.855
 2548W        W 9857   6.121   1.953   6.065
 2549W        W 9858   9.153   1.125   0.858
 2550W        W 9859   2.583   4.167   8.006
 2551W        W 9860  14.866   8.889   6.802
 2552W        W 9861   1.148   4.664   9.553
 2553W        W 9862  15.378   4.946   6.283
 2554W        W 9863   1.622   5.351   9.919
 2555W        W 9864  19.933   5.225   8.428
 2556W        W 9865  15.850   5.899   8.890
 2557W        W 9866   9.683   9.412   8.205
 2558W        W 9867  13.330   6.526   8.866
 2559W        W 9868   3.307   0.763   9.306
 2560W        W 9869   9.659   5.827   7.414
 2561W        W 9870  15.494   6.407   6.569
 2562W        W 9871   4.016   6.837   6.847
 2563W        W 9872   7.515   6.230   7.263
 2564W        W 9873   6.463   5.746   0.259
 2565W        W 9874  13.836   5.610   8.742
 2566W        W 9875  17.259   5.140   8.176
 2567W        W 9876  16.400   4.108   0.143
 2568W        W 9877   0.144   0.256   9.371
 2569W        W 9878   0.626   1.354   7.525
 2570W        W 9879  12.464   2.776   9.144
 2571W        W 9880  17.612   8.542   0.257
 2572W        W 9881   6.004   9.303   0.788
 2573W        W 9882   2.024   1.555   6.531
 2574W        W 9883  18.232   3.750   7.416
 2575W        W 9884   1.267   1.162   0.123
 2576W        W 9885  13.597   1.347   7.346
 2577W        W 9886   3.025   8.461   0.496
 2578W        W 9887   2.844   8.734   9.618
 2579W        W 9888  17.619   7.354   6.163
 2580W        W 9889   5.979   1.112   0.398
 2581W        W 9890   6.728   9.685   0.643
 2582W        W 9891   4.542   7.569   6.531
 2583W        W 9892   1.781   2.476   9.231
 2584W        W 9893  10.284   7.506   8.459
 2585W        W 9894  15.979   0.763   8.766
 2586W        W 9895   0.680   8.074   8.588
 2587W        W 9896   3.311   8.889   6.979
 2588W        W 9897   9.915   7.225   8.796
 2589W        W 9898  14.945   0.656   7.010
 2590W        W 9899   9.248   6.896   8.262
 2591W        W 9900   3.333   0.517   0.647
 2592W        W 9901  13.394   5.307   9.644
 2593W        W 9902   4.359   6.316   9.763
 2594W        W 9903  13.668   1.834   8.074
 2595W        W 9904  16.108   7.727   0.857
 2596W        W 9905   7.578   9.189   7.339
 2597W        W 9906  19.344   8.307   9.784
 2598W        W 9907  12.482   7.787   8.803
 2599W        W 9908   2.383   5.588   6.047
 2600W        W 9909   5.078   3.657   6.071
 2601W        W 9910   5.121   7.838   6.979
 2602W        W 9911   6.558   0.468   0.196
 2603W        W 9912   8.827   6.234   7.504
 2604W        W 9913   2.239   1.307   8.108
 2605W        W 9914   0.634   8.464   1.151
 2606W        W 9915  14.761   5.558   6.191
 2607W        W 9916  14.099   8.810   0.438
 2608W        W 9917  16.535   2.683   8.375
 2609W        W 9918  15.499   7.165   0.936
 2610W        W 9919  12.073   5.353   9.621
 2611W        W 9920   4.440   4.994   7.821
 2612W        W 9921   3.087   2.837   7.910
 2613W        W 9922  13.200   8.260   8.700
 2614W        W 9923  16.418   2.147   9.663
 2615W        W 9924   4.510   0.227   9.551
 2616W        W 9925  10.182   4.156   0.621
 2617W        W 9926  16.542   0.873   9.522
 2618W        W 9927   1.577   5.352   0.424
 2619W        W 9928  13.316   2.333   0.841
 2620W        W 9929   2.632   4.602   6.239
 2621W        W 9930  17.242   5.018   6.731
 2622W        W 9931   6.924   1.874   7.211
 2623W        W 9932  11.512   6.626   8.354
 2624W        W 9933   6.761   3.210   7.404
 2625W        W 9934  17.346   5.611   7.921
 2626W        W 9935   3.910   2.405   7.991
 2627W        W 9936  19.241   5.893   7.461
 2628W        W 9937  19.616   5.449   0.189
 2629W        W 9938  13.913   9.170   6.122
 2630W        W 9939   6.991   5.866   0.188
 2631W        W 9940   9.262   4.543   6.122
 2632W        W 9941  15.563   2.086   0.282
 2633W        W 9942  15.992   5.237   9.286
 2634W        W 9943   9.843   7.443   7.486
 2635W        W 9944   0.188   5.017   9.751
 2636W        W 9945  13.792   1.396   7.832
 2637W        W 9946  17.856   8.393   0.685
 2638W        W 9947  12.001   9.476   9.080
 2639W        W 9948  12.948   5.939   8.005
 2640W        W 9949   3.744   7.953   0.667
 2641W        W 9950   1.708   7.317   7.169
 2642W        W 9951  15.387   9.999   6.009
 2643W        W 9952   5.352   0.719   8.717
 2644W        W 9953  10.529   0.666   8.727
 2645W        W 9954  10.597   8.522   6.785
 2646W        W 9955  15.453   3.768   8.885
 2647W        W 9956  18.619   3.483   9.174
 2648W        W 9957   2.042   1.590   8.689
 2649W        W 9958  10.682   9.844   6.124
 2650W        W 9959  16.436   8.426   7.958
 2651W        W 9960  13.897   9.307   7.112
 2652W        W 9961   7.698   4.100   6.803
 2653W        W 9962   4.644   0.209   6.029
 2654W        W 9963  11.634   3.445   6.510
 2655W        W 9964   4.322   4.578   8.932
 2656W        W 9965  18.895   0.638   8.928
 2657W        W 9966  19.074   3.528   0.065
 2658W        W 9967  16.194   4.551   0.469
 2659W        W 9968  10.577   4.101   7.322
 2660W        W 9969   1.687   7.923   6.010
 2661W        W 9970   3.555   8.513   6.687
 2662W        W 9971   7.501   9.005   8.132
 2663W        W 9972   3.133   9.844   8.956
 2664W        W 9973   8.627   8.168   9.934
 2665W        W 9974   7.243   7.961   0.698
 2666W        W 9975   4.719   1.580   0.203
 2667W        W 9976   6.042   6.054   8.747
 2668W        W 9977  19.411   6.945   9.041
 2669W        W 9978  16.624   2.518   6.194
 2670W        W 9979   3.284   4.513   7.550
 2671W        W 9980   9.748   4.681   9.794
 2672W        W 9981  10.874   4.969   9.568
 2673W        W 9982  16.000   8.547   0.902
 2674W        W 9983   2.574   9.280   0.901
 2675W        W 9984   3.652   4.561   8.207
 2676W        W 9985  18.669   1.750   8.184
 2677W        W 9986  10.928   8.486   0.270
 2678W        W 9987   6.251   4.719   9.033
 2679W        W 9988  13.955   8.860   9.951
 2680W        W 9989   4.447   4.377   6.261
 2681W        W 9990  19.167   1.096   5.797
 2682W        W 9991  15.415   4.075   7.156
 2683W        W 9992  13.748   2.488   9.401
 2684W        W 9993  19.304   4.360   6.499
 2685W        W 9994   4.756   7.578   9.421
 2686W        W 9995   0.215   1.158   7.289
 2687W        W 9996   5.202   3.204   0.596
 2688W        W 9997   5.584   5.688   8.067
 2689W        W 9998  12.637   9.329   0.782
 2690W        W 9999  11.694   6.458   0.298
 2691W        W10000  14.962   8.164   9.157
 2692W        W10001  12.558   6.950   8.803
 2693W        W10002  11.475   7.691   0.631
 2694W        W10003  11.813   0.336   0.309
 2695W        W10004   1.038   1.647   7.613
 2696W        W10005  11.041   4.492   6.164
 2697W        W10006  12.585   5.431   9.309
 2698W        W10007  13.856   9.731   9.962
 2699W        W10008   0.682   9.312   6.662
 2700W        W10009  14.422   1.234   8.428
 2701W        W10010  17.764   1.299   8.968
 2702W        W10011  18.230   2.583   9.485
 2703W        W10012  12.820   8.626   6.114
 2704W        W10013  14.748   9.176   8.193
 2705W        W10014  14.190   6.810   6.611
 2706W        W10015   4.791   7.970   7.434
 2707W        W10016   2.682   9.836   8.700
 2708W        W10017  17.168   7.861   0.953
 2709W        W10018  15.906   0.340   9.959
 2710W        W10019   2.737   5.919   6.259
 2711W        W10020  15.935   8.075   9.132
 2712W        W10021  14.034   7.825   6.813
 2713W        W10022   5.246   6.662   8.001
 2714W        W10023  18.261   7.380   9.857
 2715W        W10024   8.823   8.617   9.748
 2716W        W10025  10.735   4.124   9.194
 2717W        W10026   8.454   6.026   8.842
 2718W        W10027   4.141   1.946   7.801
 2719W        W10028  13.028   6.509   8.440
 2720W        W10029  18.438   4.862   9.237
 2721W        W10030   5.537   8.850   9.703
 2722W        W10031  13.584   2.679   7.747
 2723W        W10032   0.117   7.259   9.429
 2724W        W10033  17.266   2.150   0.242
 2725W        W10034   2.602   2.802   9.650
 2726W        W10035  18.776   5.028   0.509
 2727W        W10036   4.708   2.639   8.305
 2728W        W10037   5.591   3.066   7.449
 2729W        W10038  16.994   4.403   8.689
 2730W        W10039   2.148   0.705   6.350
 2731W        W10040   9.914   6.476   6.645
 2732W        W10041  12.371   6.083   5.905
 2733W        W10042   4.083   3.161   0.342
 2734W        W10043   3.631   3.667   9.817
 2735W        W10044  14.486   8.050   0.077
 2736W        W10045   4.321   8.714   7.791
 2737W        W10046  19.411   2.564   6.149
 2738W        W10047  10.472   2.330   8.113
 2739W        W10048  12.248   7.455   7.429
 2740W        W10049  17.145   0.342   9.027
 2741W        W10050  10.148   8.444   7.023
 2742W        W10051  14.922   4.942   8.417
 2743W        W10052   3.567   3.708   9.316
 2744W        W10053  12.346   6.594   5.674
 2745W        W10054  19.803   1.266   7.552
 2746W        W10055  14.419   6.229   0.957
 2747W        W10056   7.872   8.214   5.938
 2748W        W10057   1.849   0.108   8.472
 2749W        W10058  16.341   2.235   1.187
 2750W        W10059   1.913   2.050   8.494
 2751W        W10060  19.659   1.691   1.303
 2752W        W10061   4.572   9.240   7.209
 2753W        W10062  12.013   0.137   5.853
 2754W        W10063   8.688   4.012   7.340
 2755W        W10064  18.186   8.502   7.189
 2756W        W10065   6.119   0.399   6.808
 2757W        W10066  14.529   7.440   8.179
 2758W        W10067   2.556   6.340   6.470
 2759W        W10068   2.354   0.199   8.522
 2760W        W10069  11.717   5.975   0.509
 2761W        W10070   0.745   4.142   8.336
 2762W        W10071   8.548   7.841   6.074
 2763W        W10072   0.306   4.105   6.551
 2764W        W10073  13.275   1.871   6.629
 2765W        W10074   1.452   1.707   8.575
 2766W        W10075   3.644   1.601   0.763
 2767W        W10076  16.086   8.150   7.118
 2768W        W10077   7.713   1.695   0.597
 2769W        W10078  11.799   1.374   8.369
 2770W        W10079   4.623   1.227   8.267
 2771W        W10080   2.865   2.821   7.456
 2772W        W10081  10.452   8.718   8.909
 2773W        W10082   1.524   1.747   6.910
 2774W        W10083   3.624   7.843   0.069
 2775W        W10084  17.682   2.716   6.674
 2776W        W10085  17.847   7.361   9.431
 2777W        W10086  13.336   2.755   0.120
 2778W        W10087  15.118   4.471   7.706
 2779W        W10088   0.333   8.892   0.080
 2780W        W10089  11.163   6.009   6.839
 2781W        W10090  14.448   4.084   7.609
 2782W        W10091   9.875   8.060   6.781
 2783W        W10092   9.600   2.573   0.785
 2784W        W10093  14.612   5.077   0.757
 2785W        W10094   7.663   3.536   5.987
 2786W        W10095   5.625   3.021   7.999
 2787W        W10096   1.721   3.590   0.587
 2788W        W10097   0.341   9.333   7.490
 2789W        W10098  19.428   3.963   6.171
 2790W        W10099   0.383   0.175   6.316
 2791W        W10100   2.611   6.976   8.903
 2792W        W10101   5.140   6.980   8.935
 2793W        W10102   5.124   1.380   7.993
 2794W        W10103  17.420   4.175   9.891
 2795W        W10104  19.585   2.200   8.429
 2796W        W10105   5.751   3.600   7.940
 2797W        W10106  17.850   7.390   0.185
 2798W        W10107  18.250   7.795   8.406
 2799W        W10108   6.745   5.038   6.333
 2800W        W10109  18.856   2.537   7.149
 2801W        W10110   4.590   2.044   0.436
 2802W        W10111  13.810   5.452   0.231
 2803W        W10112  13.586   2.018   9.518
 2804W        W10113   6.934   8.541   8.437
 2805W        W10114   5.610   3.730   0.530
 2806W        W10115  12.753   7.738   0.255
 2807W        W10116  11.505   5.877   5.962
 2808W        W10117  15.278   0.969   6.129
 2809W        W10118   0.862   3.649   8.366
 2810W        W10119   8.457   8.024   1.522
 2811W        W10120  12.236   0.204   8.116
 2812W        W10121  13.187   5.225   7.441
 2813W        W10122   1.299   0.274   0.257
 2814W        W10123  19.412   5.319   6.282
 2815W        W10124   4.759   7.900   0.653
 2816W        W10125  10.444   8.712   0.612
 2817W        W10126  15.481   5.418   6.483
 2818W        W10127  16.202   0.344   8.560
 2819W        W10128  15.803   1.680   9.196
 2820W        W10129  10.994   7.904   7.848
 2821W        W10130  12.885   2.099   6.899
 2822W        W10131  15.502   3.161   6.088
 2823W        W10132  13.805   4.659   7.833
 2824W        W10133   4.262   2.912   7.538
 2825W        W10134   8.895   7.639   6.385
 2826W        W10135   8.191   7.430   9.381
 2827W        W10136   8.461   2.940   1.167
 2828W        W10137   8.033   1.769   6.823
 2829W        W10138  10.543   5.905   7.062
 2830W        W10139  11.133   2.530   9.470
 2831W        W10140   0.031   2.769   7.935
 2832W        W10141   2.546   5.534   8.384
 2833W        W10142   4.336   5.940   7.816
 2834W        W10143  19.259   4.906   0.748
 2835W        W10144  15.947   2.661   8.589
 2836W        W10145   3.955   5.123   7.623
 2837W        W10146  19.793   8.567   9.726
 2838W        W10147   0.629   4.028   6.963
 2839W        W10148   8.645   2.008   9.711
 2840W        W10149   6.979   8.361   9.407
 2841W        W10150  17.454   0.374   8.181
 2842W        W10151   8.922   3.008   0.918
 2843W        W10152  10.138   2.723   0.905
 2844W        W10153  16.017   8.058   0.049
 2845W        W10154   0.771   9.178   7.774
 2846W        W10155   3.030   0.118   7.290
 2847W        W10156  13.705   7.595   7.102
 2848W        W10157  15.740   1.634   8.680
 2849W        W10158  19.362   2.552   7.203
 2850W        W10159   1.894   7.892   0.186
 2851W        W10160  18.564   7.063   7.829
 2852W        W10161  10.116   9.578   7.982
 2853W        W10162   3.864   2.794   8.349
 2854W        W10163  13.897   2.184   1.216
 2855W        W10164   5.198   0.258   9.218
 2856W        W10165   8.578   0.009   6.504
 2857W        W10166  16.492   3.081   9.184
 2858W        W10167   1.614   6.738   0.716
 2859W        W10168   9.664   7.298   9.850
 2860W        W10169   5.049   5.364   8.029
 2861W        W10170   7.763   8.671   5.715
 2862W        W10171   6.495   0.801   7.882
 2863W        W10172  10.955   6.860   0.919
 2864W        W10173   0.100   2.326   0.271
 2865W        W10174  10.235   6.328   8.744
 2866W        W10175  16.006   6.258   7.841
 2867W        W10176   5.211   5.629   8.896
 2868W        W10177   5.049   7.626   6.390
 2869W        W10178  18.415   4.007   6.463
 2870W        W10179  14.672   6.754   9.867
 2871W        W10180   7.294   3.440   0.658
 2872W        W10181   1.994   9.676   9.389
 2873W        W10182   0.119   9.796   7.640
 2874W        W10183   3.577   2.752   6.292
 2875W        W10184   0.195   1.605   7.589
 2876W        W10185  18.341   3.907   0.421
 2877W        W10186   0.269   2.200   9.774
 2878W        W10187   1.179   0.190   7.805
 2879W        W10188   5.598   8.294   8.427
 2880W        W10189  11.171   3.026   0.339
 2881W        W10190  14.541   5.054   6.799
 2882W        W10191   6.241   7.863   8.948
 2883W        W10192   4.595   8.858   0.114
 2884W        W10193   6.741   2.132   7.800
 2885W        W10194   9.638   1.039   0.668
 2886W        W10195   0.237   6.337   8.009
 2887W        W10196  18.998   7.744   8.085
 2888W        W10197  18.855   6.777   7.036
 2889W        W10198  15.481   9.448   9.536
 2890W        W10199  10.418   8.709   9.781
 2891W        W10200  14.778   2.513   9.317
 2892W        W10201  14.903   4.733   6.312
 2893W        W10202  19.067   7.580   6.612
 2894W        W10203  14.102   4.071   9.612
 2895W        W10204   7.051   0.114   6.626
 2896W        W10205   2.985   0.231   7.790
 2897W        W10206   7.990   9.881   7.626
 2898W        W10207  14.777   0.762   6.056
 2899W        W10208   0.526   9.005   5.686
 2900W        W10209   5.523   1.965   9.513
 2901W        W10210   2.599   2.696   7.905
 2902W        W10211  13.190   4.061   9.608
 2903W        W10212   2.244   4.105   0.514
 2904W        W10213  13.123   8.124   7.386
 2905W        W10214   7.499   7.254   6.319
 2906W        W10215   4.255   1.663   0.438
 2907W        W10216   2.210   6.401   6.874
 2908W        W10217  12.016   1.722   0.410
 2909W        W10218   6.648   4.086   8.518
 2910W        W10219   1.128   9.445   8.470
 2911W        W10220   8.542   6.592   6.404
 2912W        W10221  13.562   0.313   7.909
 2913W        W10222   2.611   6.114   9.669
 2914W        W10223  18.681   4.205   6.853
 2915W        W10224   1.769   2.434   9.759
 2916W        W10225   5.609   2.581   7.745
 2917W        W10226  12.583   7.223   1.087
 2918W        W10227   1.822   6.897   8.467
 2919W        W10228   7.607   6.379   0.223
 2920W        W10229   5.470   1.219   8.851
 2921W        W10230  16.180   2.772   0.328
 2922W        W10231  18.679   4.223   9.643
 2923W        W10232  13.065   9.857   7.850
 2924W        W10233  12.142   9.738   7.885
 2925W        W10234  16.756   7.126   8.383
 2926W        W10235  15.111   4.518   7.188
 2927W        W10236  18.122   2.267   0.784
 2928W        W10237   1.087   7.918   7.306
 2929W        W10238   9.878   5.133   6.313
 2930W        W10239   7.561   2.938   1.098
 2931W        W10240   4.148   3.344   0.840
 2932W        W10241   8.374   2.747   8.817
 2933W        W10242   2.638   5.967   7.672
 2934W        W10243   8.539   4.850   7.601
 2935W        W10244   0.850   8.489   9.769
 2936W        W10245  13.770   3.505   6.457
 2937W        W10246   0.181   6.558   0.993
 2938W        W10247  10.449   6.812   0.843
 2939W        W10248  19.576   7.688   6.616
 2940W        W10249   8.042   2.263   7.059
 2941W        W10250   9.082   1.412   6.576
 2942W        W10251  13.423   9.605   0.740
 2943W        W10252  13.810   1.796   7.512
 2944W        W10253  12.216   8.188   9.740
 2945W        W10254   7.550   6.531   8.017
 2946W        W10255   6.711   5.458   8.041
 2947W        W10256  18.955   8.558   6.167
 2948W        W10257  17.364   8.259   0.675
 2949W        W10258   9.103   2.293   9.657
 2950W        W10259  18.138   2.650   6.908
 2951W        W10260  12.123   9.362   9.563
 2952W        W10261  16.345   7.100   9.301
 2953W        W10262   1.465   6.209   7.962
 2954W        W10263   8.308   5.571   1.105
 2955W        W10264   5.795   7.812   6.629
 2956W        W10265  12.116   9.192   8.174
 2957W        W10266   8.347   0.709   0.887
 2958W        W10267  13.510   2.792   9.071
 2959W        W10268   4.470   4.941   9.694
 2960W        W10269   7.103   8.851   9.230
 2961W        W10270  14.319   9.402   8.964
 2962W        W10271  16.501   7.332   7.561
 2963W        W10272  17.312   1.244   9.227
 2964W        W10273  15.408   1.919   7.220
 2965W        W10274   3.402   7.527   0.604
 2966W        W10275   2.676   3.459   9.196
 2967W        W10276  14.147   3.886   7.211
 2968W        W10277  15.822   3.168   7.410
 2969W        W10278   9.697   1.666   6.630
 2970W        W10279  13.668   5.197   0.805
 2971W        W10280  18.621   6.702   7.485
 2972W        W10281   0.091   2.014   6.343
 2973W        W10282  16.097   5.766   9.406
 2974W        W10283   8.029   3.234   7.978
 2975W        W10284   0.604   0.035   7.849
 2976W        W10285   6.947   6.861   8.857
 2977W        W10286   0.832   1.352   9.172
 2978W        W10287  19.751   6.378   8.150
 2979W        W10288  16.872   1.105   7.930
 2980W        W10289  13.157   2.594   8.072
 2981W        W10290  17.485   4.752   9.655
 2982W        W10291  14.340   9.394   8.438
 2983W        W10292   1.215   3.686   9.403
 2984W        W10293  15.484   2.772   7.330
 2985W        W10294  10.051   9.292   7.134
 2986W        W10295   0.939   2.524   7.637
 2987W        W10296  17.824   8.215   6.819
 2988W        W10297   5.262   9.756   6.706
 2989W        W10298  14.641   4.358   6.105
 2990W        W10299  14.788   9.251   8.800
 2991W        W10300  16.651   9.293   7.507
 2992W        W10301  15.062   1.054   0.734
 2993W        W10302  12.873   2.130   7.745
 2994W        W10303   3.685   5.629   7.752
 2995W        W10304  14.392   4.410   0.088
 2996W        W10305  12.798   1.737   9.720
 2997W        W10306   0.372   6.993   6.648
 2998W        W10307  11.956   8.662   9.728
 2999W        W10308  11.065   1.843   8.221
 3000W        W10309   9.325   9.013   8.334
 3001W        W10310  15.195   9.287   6.832
 3002W        W10311   4.469   6.627   9.340
 3003W        W10312   9.277   8.181   7.479
 3004W        W10313  15.622   0.578   6.206
 3005W        W10314   2.883   5.343   9.623
 3006W        W10315  18.677   8.654   6.954
 3007W        W10316  14.369   8.948   8.704
 3008W        W10317   4.222   2.741   9.609
 3009W        W10318   8.826   5.890   8.491
 3010W        W10319   9.518   5.223   8.894
 3011W        W10320   1.181   9.295   7.448
 3012W        W10321  11.003   7.753   0.837
 3013W        W10322   0.702   2.918   0.393
 3014W        W10323   6.972   8.438   7.151
 3015W        W10324   4.644   5.521   6.787
 3016W        W10325   9.960   0.037   7.835
 3017W        W10326   5.291   8.857   6.853
 3018W        W10327  19.875   9.018   9.102
 3019W        W10328   2.280   8.726   6.211
 3020W        W10329  12.581   4.243   6.919
 3021W        W10330   7.155   7.979   6.787
 3022W        W10331   2.814   2.182   6.660
 3023W        W10332   6.257   1.552   0.284
 3024W        W10333  16.444   6.622   7.289
 3025W        W10334  10.855   3.262   0.943
 3026W        W10335   5.993   6.863   8.595
 3027W        W10336   0.748   2.705   6.681
 3028W        W10337   7.900   4.135   9.696
 3029W        W10338  11.974   2.514   8.969
 3030W        W10339  16.170   2.647   6.440
 3031W        W10340   3.358   3.144   7.531
 3032W        W10341  14.016   2.062   7.103
 3033W        W10342  16.424   3.970   6.586
 3034W        W10343   3.620   4.846   8.644
 3035W        W10344   2.209   8.873   8.809
 3036W        W10345   2.036   8.420   0.604
 3037W        W10346  14.330   7.745   9.307
 3038W        W10347  11.211   3.151   6.554
 3039W        W10348   8.985   2.523   7.175
 3040W        W10349   0.523   2.537   0.071
 3041W        W10350  13.552   0.075   8.991
 3042W        W10351   8.646   0.813   8.449
 3043W        W10352   4.743   7.649   8.588
 3044W        W10353  11.269   6.164   8.552
 3045W        W10354   1.930   0.568   6.816
 3046W        W10355   7.101   3.005   0.858
 3047W        W10356   5.946   4.057   9.039
 3048W        W10357  15.008   6.399   7.327
 3049W        W10358  13.031   7.043   7.162
 3050W        W10359  14.835   0.626   8.863
 3051W        W10360   1.475   0.760   0.403
 3052W        W10361  16.535   2.257   6.628
 3053W        W10362  18.482   4.752   6.971
 3054W        W10363  14.219   8.454   7.832
 3055W        W10364  12.111   1.785   7.903
 3056W        W10365   5.487   5.746   0.358
 3057W        W10366   1.099   6.499   8.220
 3058W        W10367  14.304   7.868   8.440
 3059W        W10368  16.901   1.677   0.725
 3060W        W10369  17.694   6.761   7.345
 3061W        W10370  14.096   4.010   0.157
 3062W        W10371   8.879   4.854   6.226
 3063W        W10372   7.166   6.432   9.448
 3064W        W10373  15.902   1.158   0.284
 3065W        W10374  10.121   6.852   6.307
 3066W        W10375   3.529   5.480   0.244
 3067W        W10376  13.637   1.210   0.093
 3068W        W10377  18.649   5.370   8.323
 3069W        W10378   7.673   8.591   8.880
 3070W        W10379  17.264   0.437   0.538
 3071W        W10380  15.482   1.062   9.376
 3072W        W10381  17.158   4.487   0.461
 3073W        W10382   0.714   0.875   6.785
 3074W        W10383  13.906   9.271   8.154
 3075W        W10384   3.259   0.302   9.138
 3076W        W10385   3.108   3.475   8.508
 3077W        W10386  16.363   3.529   8.895
 3078W        W10387  14.033   2.958   7.069
 3079W        W10388   2.284   7.984   0.676
 3080W        W10389   5.668   8.902   7.692
 3081W        W10390   3.428   7.483   9.720
 3082W        W10391   7.696   2.269   8.866
 3083W        W10392   1.504   7.909   6.985
 3084W        W10393   9.395   4.139   7.072
 3085W        W10394  19.566   8.763   8.753
 3086W        W10395   7.592   1.481   9.134
 3087W        W10396   9.879   8.655   0.610
 3088W        W10397  15.343   4.643   9.459
 3089W        W10398   7.299   5.343   7.515
 3090W        W10399   8.621   6.555   5.895
 3091W        W10400   3.767   2.028   9.497
 3092W        W10401  13.877   7.463   7.562
 3093W        W10402  12.983   8.963   8.370
 3094W        W10403  14.223   5.488   6.256
 3095W        W10404   5.205   1.054   7.595
 3096W        W10405  10.633   7.399   6.430
 3097W        W10406   0.197   3.227   9.663
 3098W        W10407   6.549   9.454   7.329
 3099W        W10408  16.839   9.499   0.970
 3100W        W10409  17.011   2.958   0.356
 3101W        W10410   7.023   1.332   0.674
 3102W        W10411   6.616   6.255   6.676
 3103W        W10412  12.813   2.504   9.416
 3104W        W10413   0.654   1.785   6.291
 3105W        W10414   3.669   0.677   7.415
 3106W        W10415  14.766   3.163   8.915
 3107W        W10416  10.495   4.092   7.846
 3108W        W10417   7.052   4.623   5.876
 3109W        W10418  16.301   9.302   7.865
 3110W        W10419   6.734   6.577   9.685
 3111W        W10420   8.157   1.347   8.881
 3112W        W10421  14.045   0.218   7.104
 3113W        W10422  11.460   7.821   6.502
 3114W        W10423  15.329   1.565   9.428
 3115W        W10424  11.683   1.251   6.872
 3116W        W10425   0.009   6.776   7.855
 3117W        W10426   3.277   0.208   8.636
 3118W        W10427   4.871   1.776   8.751
 3119W        W10428   2.082   7.053   8.894
 3120W        W10429  14.233   3.748   6.486
 3121W        W10430   9.097   1.861   9.919
 3122W        W10431  13.711   1.741   5.703
 3123W        W10432   6.166   5.594   9.780
 3124W        W10433   1.382   9.928   0.640
 3125W        W10434   6.956   2.031   0.886
 3126W        W10435  10.595   7.966   9.280
 3127W        W10436  18.169   9.063   8.945
 3128W        W10437  14.808   0.113   8.219
 3129W        W10438   6.316   2.663   0.764
 3130W        W10439  17.430   5.536   7.399
 3131W        W10440   9.702   7.242   6.315
 3132W        W10441  16.498   6.309   6.392
 3133W        W10442  15.911   5.142   8.396
 3134W        W10443  12.138   9.922   0.340
 3135W        W10444  10.666   6.116   9.789
 3136W        W10445   7.584   6.296   9.702
 3137W        W10446   0.913   5.182   6.101
 3138W        W10447   8.488   2.006   7.036
 3139W        W10448   6.787   5.422   7.545
 3140W        W10449   0.863   1.614   0.422
 3141W        W10450   8.937   6.143   6.082
 3142W        W10451   7.311   9.699   7.129
 3143W        W10452  18.544   2.926   7.087
 3144W        W10453   9.788   0.898   7.811
 3145W        W10454   4.981   9.400   7.471
 3146W        W10455  19.466   1.879   0.188
 3147W        W10456  18.953   3.774   6.928
 3148W        W10457   8.449   4.464   0.175
 3149W        W10458  18.496   8.104   8.049
 3150W        W10459   2.514   5.020   7.290
 3151W        W10460   3.890   3.285   8.120
 3152W        W10461   9.378   2.131   9.242
 3153W        W10462   4.142   6.394   7.982
 3154W        W10463   7.398   5.387   7.005
 3155W        W10464   6.243   9.620   6.500
 3156W        W10465   5.144   2.505   9.920
 3157W        W10466   6.410   9.134   9.701
 3158W        W10467   0.327   2.684   7.002
 3159W        W10468   9.619   0.945   8.795
 3160W        W10469   2.132   9.740   7.599
 3161W        W10470  16.456   0.895   6.102
 3162W        W10471   2.223   2.064   8.931
 3163W        W10472   1.801   2.063   6.630
 3164W        W10473   5.079   2.921   0.206
 3165W        W10474   8.747   4.006   9.298
 3166W        W10475   4.745   3.106   8.086
 3167W        W10476  14.311   5.534   7.092
 3168W        W10477   7.513   9.285   0.428
 3169W        W10478   8.999   2.626   6.682
 3170W        W10479  14.863   7.890   7.417
 3171W        W10480  13.967   0.199   8.713
 3172W        W10481   4.888   1.457   7.520
 3173W        W10482   9.037   4.196   8.848
 3174W        W10483   6.001   1.802   7.058
 3175W        W10484   1.711   6.998   6.010
 3176W        W10485   0.127   7.847   6.940
 3177W        W10486   2.473   9.325   8.775
 3178W        W10487  18.327   7.415   7.369
 3179W        W10488  18.736   6.464   0.526
 3180W        W10489   5.936   1.885   8.844
 3181W        W10490   2.459   0.380   6.107
 3182W        W10491  10.862   3.847   6.956
 3183W        W10492  17.245   5.654   9.230
 3184W        W10493   1.999   0.451   8.842
 3185W        W10494  15.787   0.309   0.463
 3186W        W10495   8.545   1.995   1.086
 3187W        W10496  15.614   9.560   6.838
 3188W        W10497  11.505   2.962   9.521
 3189W        W10498   9.806   9.043   8.567
 3190W        W10499  16.132   6.425   0.725
 3191W        W10500   2.188   3.008   8.719
 3192W        W10501  18.865   1.826   0.722
 3193W        W10502  17.333   7.604   6.505
 3194W        W10503   5.643   0.133   8.964
 3195W        W10504  18.399   0.793   8.949
 3196W        W10505  16.893   6.151   6.723
 3197W        W10506   2.721   2.674   6.523
 3198W        W10507  10.937   3.005   7.153
 3199W        W10508  15.677   7.322   7.061
 3200W        W10509  12.448   8.302   7.884
 3201W        W10510   3.155   4.530   8.110
 3202W        W10511  14.783   9.844   9.503
 3203W        W10512  15.662   1.596   0.218
 3204W        W10513   0.193   9.296   8.799
 3205W        W10514   4.186   4.663   7.516
 3206W        W10515   7.435   2.128   0.665
 3207W        W10516  11.916   9.115   0.608
 3208W        W10517  14.915   1.194   8.811
 3209W        W10518  17.721   3.797   7.514
 3210W        W10519   6.823   0.480   7.591
 3211W        W10520  13.360   7.412   9.756
 3212W        W10521   9.241   5.797   8.167
 3213W        W10522  11.106   7.000   7.435
 3214W        W10523  10.410   0.264   6.111
 3215W        W10524   6.637   2.641   7.986
 3216W        W10525  17.219   0.773   7.426
 3217W        W10526   3.539   7.693   7.018
 3218W        W10527  11.862   7.956   0.387
 3219W        W10528  18.744   7.874   9.281
 3220W        W10529   2.646   4.129   0.834
 3221W        W10530   9.738   3.969   0.816
 3222W        W10531  18.955   0.644   7.123
 3223W        W10532  10.077   1.730   7.927
 3224W        W10533   2.683   6.654   0.576
 3225W        W10534   6.538   0.097   6.738
 3226W        W10535  17.718   4.507   6.570
 3227W        W10536  15.992   1.492   0.685
 3228W        W10537  11.735   0.829   8.544
 3229W        W10538   7.551   6.431   0.748
 3230W        W10539   1.876   6.189   8.817
 3231W        W10540  10.030   5.153   9.848
 3232W        W10541  16.252   8.088   6.171
 3233W        W10542  13.320   0.818   0.227
 3234W        W10543   6.306   6.575   9.979
 3235W        W10544   1.654   9.369   6.153
 3236W        W10545  13.102   0.369   8.112
 3237W        W10546   6.094   4.943   7.453
 3238W        W10547  12.399   8.884   8.575
 3239W        W10548   5.097   4.409   0.258
 3240W        W10549   2.382   7.760   8.441
 3241W        W10550   6.450   1.215   8.193
 3242W        W10551  10.746   0.514   9.543
 3243W        W10552  12.345   7.114   8.296
 3244W        W10553   6.783   2.895   9.504
 3245W        W10554  10.412   7.487   9.314
 3246W        W10555  17.953   9.749   6.852
 3247W        W10556  16.818   4.180   6.897
 3248W        W10557  13.650   4.970   6.817
 3249W        W10558   4.158   8.978   8.611
 3250W        W10559   6.001   6.793   0.754
 3251W        W10560   2.804   4.605   0.743
 3252W        W10561  17.840   6.452   8.995
 3253W        W10562   2.751   5.965   8.178
 3254W        W10563  17.976   0.019   6.412
 3255W        W10564   1.122   3.102   0.089
 3256W        W10565   1.502   2.279   8.680
 3257W        W10566   7.957   0.916   7.900
 3258W        W10567   3.774   4.131   0.067
 3259W        W10568   0.069   2.530   8.947
 3260W        W10569   8.793   8.423   0.352
 3261W        W10570   0.842   9.694   7.000
 3262W        W10571  18.709   2.211   6.327
 3263W        W10572  12.887   0.962   0.472
 3264W        W10573   5.789   4.824   9.753
 3265W        W10574  19.543   1.748   9.207
 3266W        W10575  14.357   4.664   9.649
 3267W        W10576   2.827   3.950   9.816
 3268W        W10577  13.345   0.833   0.848
 3269W        W10578   5.947   9.941   8.481
 3270W        W10579   6.908   6.766   6.201
 3271W        W10580   1.617   8.025   8.874
 3272W        W10581   7.848   0.855   1.026
 3273W        W10582  11.559   2.654   7.186
 3274W        W10583   9.613   8.191   0.683
 3275W        W10584  18.621   6.322   0.043
 3276W        W10585   9.926   6.412   6.112
 3277W        W10586   6.974   6.003   8.691
 3278W        W10587  15.409   7.593   0.695
 3279W        W10588   5.728   6.913   6.147
 3280W        W10589  17.805   4.192   8.150
 3281W        W10590   3.722   2.035   1.053
 3282W        W10591   0.988   7.572   9.344
 3283W        W10592   8.149   0.720   9.520
 3284W        W10593   6.714   0.748   9.346
 3285W        W10594  17.767   2.647   9.234
 3286W        W10595  12.019   3.524   9.204
 3287W        W10596  19.354   8.328   5.942
 3288W        W10597  14.521   9.420   9.433
 3289W        W10598  10.134   8.503   6.523
 3290W        W10599   2.092   9.192   6.919
 3291W        W10600  15.759   3.403   9.160
 3292W        W10601  15.902   9.970   6.799
 3293W        W10602   4.010   7.860   7.905
 3294W        W10603  10.752   4.626   9.965
 3295W        W10604  11.740   2.280   7.483
 3296W        W10605   5.679   0.150   6.923
 3297W        W10606   8.884   1.201   8.191
 3298W        W10607   1.982   9.137   7.427
 3299W        W10608   0.772   4.443   7.221
 3300W        W10609   0.839   6.262   7.005
 3301W        W10610  15.261   5.578   6.035
 3302W        W10611   3.236   8.158   9.216
 3303W        W10612   8.811   5.033   8.454
 3304W        W10613   5.421   4.032   7.771
 3305W        W10614   0.455   7.650   9.490
 3306W        W10615   3.754   9.787   6.211
 3307W        W10616   4.264   3.771   6.976
 3308W        W10617   3.769   6.407   0.698
 3309W        W10618  11.881   6.443   7.017
 3310W        W10619  15.473   4.979   6.764
 3311W        W10620   2.518   2.632   8.762
 3312W        W10621  18.161   6.513   9.898
 3313W        W10622  13.029   1.841   0.167
 3314W        W10623   1.654   9.320   6.646
 3315W        W10624   6.792   3.806   9.509
 3316W        W10625   7.749   0.602   9.205
 3317W        W10626   6.456   5.653   9.353
 3318W        W10627  17.073   9.475   9.188
 3319W        W10628   4.759   5.065   0.665
 3320W        W10629   3.573   3.254   0.173
 3321W        W10630  17.286   2.606   9.463
 3322W        W10631  11.900   8.012   6.376
 3323W        W10632  12.075   3.070   1.237
 3324W        W10633  16.897   9.401   8.688
 3325W        W10634   8.212   1.294   7.655
 3326W        W10635  15.292   1.822   9.893
 3327W        W10636   3.532   0.147   0.966
 3328W        W10637   7.088   6.892   9.864
 3329W        W10638  19.271   4.381   0.763
 3330W        W10639  17.271   5.514   9.720
 3331W        W10640  17.467   5.987   9.597
 3332W        W10641  18.252   3.295   7.724
 3333W        W10642  10.539   1.173   7.049
 3334W        W10643   6.224   7.542   6.548
 3335W        W10644   6.812   6.675   6.897
 3336W        W10645   1.485   5.759   8.792
 3337W        W10646  19.137   1.067   8.712
 3338W        W10647   7.297   6.621   6.997
 3339W        W10648  10.337   6.386   6.977
 3340W        W10649  16.293   0.102   7.208
 3341W        W10650  11.748   8.047   6.886
 3342W        W10651   8.501   7.052   7.687
 3343W        W10652   0.766   9.899   9.406
 3344W        W10653   2.094   7.340   8.461
 3345W        W10654   5.691   6.954   6.751
 3346W        W10655   7.705   3.046   6.178
 3347W        W10656   8.680   2.305   8.830
 3348W        W10657   1.565   7.401   8.470
 3349W        W10658  18.697   2.185   8.954
 3350W        W10659  10.353   4.226   0.119
 3351W        W10660  11.274   7.421   8.782
 3352W        W10661   7.950   6.028   8.748
 3353W        W10662   1.545   7.421   9.330
 3354W        W10663  19.180   0.308   6.779
 3355W        W10664   8.985   4.005   7.963
 3356W        W10665  12.147   1.142   9.944
 3357W        W10666   3.494   9.417   6.475
 3358W        W10667  11.492   0.236   0.946
 3359W        W10668  19.323   1.695   6.425
 3360W        W10669   5.978   9.412   7.732
 3361W        W10670   0.862   3.864   7.904
 3362W        W10671   6.379   8.327   0.740
 3363W        W10672  14.016   1.541   8.327
 3364W        W10673   7.467   8.525   9.350
 3365W        W10674   9.132   7.039   7.150
 3366W        W10675  11.249   9.854   8.930
 3367W        W10676  17.461   8.267   6.110
 3368W        W10677   8.863   2.102   9.251
 3369W        W10678  17.921   3.042   9.497
 3370W        W10679  14.418   1.283   8.936
 3371W        W10680  17.812   2.222   8.964
 3372W        W10681  11.469   1.625   6.127
 3373W        W10682   3.344   2.784   0.120
 3374W        W10683  14.480   0.771   7.177
 3375W        W10684   2.405   1.214   8.597
 3376W        W10685  19.407   4.708   8.931
 3377W        W10686  15.906   3.677   6.000
 3378W        W10687  17.950   9.518   7.789
 3379W        W10688  17.863   6.925   6.307
 3380W        W10689  17.512   4.253   7.702
 3381W        W10690  14.488   2.958   0.139
 3382W        W10691  11.134   4.054   1.020
 3383W        W10692   4.264   1.780   9.930
 3384W        W10693  10.913   5.152   6.762
 3385W        W10694   7.371   6.049   7.994
 3386W        W10695   1.435   8.739   7.284
 3387W        W10696   5.958   4.494   7.792
 3388W        W10697  14.008   1.155   9.240
 3389W        W10698   8.089   7.948   0.727
 3390W        W10699   8.411   8.240   9.097
 3391W        W10700  16.447   7.973   9.132
 3392W        W10701   7.643   4.847   9.273
 3393W        W10702   6.939   2.415   6.204
 3394W        W10703   4.825   4.736   8.986
 3395W        W10704  17.338   5.330   8.838
 3396W        W10705   8.788   0.825   0.634
 3397W        W10706  18.408   6.295   8.261
 3398W        W10707   3.250   2.029   0.831
 3399W        W10708   2.744   4.074   0.312
 3400W        W10709  18.565   8.809   6.449
 3401W        W10710   0.387   3.398   7.373
 3402W        W10711   2.497   0.352   8.002
 3403W        W10712   9.454   2.085   0.917
 3404W        W10713  15.365   7.446   7.942
 3405W        W10714  18.262   3.005   8.160
 3406W        W10715   0.048   2.053   7.385
 3407W        W10716   6.013   5.831   7.731
 3408W        W10717  13.056   9.421   8.593
 3409W        W10718   4.911   4.967   6.061
 3410W        W10719  17.140   9.967   9.823
 3411W        W10720   3.706   6.019   9.061
 3412W        W10721  11.036   8.028   5.918
 3413W        W10722  16.656   0.184   8.817
 3414W        W10723   0.297   4.594   8.970
 3415W        W10724   6.288   7.838   8.418
 3416W        W10725  14.118   4.168   6.774
 3417W        W10726  18.518   8.914   9.293
 3418W        W10727   6.067   2.788   8.993
 3419W        W10728  15.355   1.393   6.442
 3420W        W10729  13.519   7.835   7.507
 3421W        W10730  18.704   9.956   7.655
 3422W        W10731  10.163   8.336   7.528
 3423W        W10732   6.521   4.572   6.548
 3424W        W10733   5.206   9.728   0.444
 3425W        W10734   7.609   3.099   0.105
 3426W        W10735  15.021   9.390   9.234
 3427W        W10736  18.153   8.398   0.267
 3428W        W10737   1.633   7.494   6.696
 3429W        W10738  12.730   2.010   9.286
 3430W        W10739   1.877   3.415   6.716
 3431W        W10740   0.750   5.920   8.419
 3432W        W10741  12.680   5.110   6.813
 3433W        W10742  10.560   5.142   9.931
 3434W        W10743   8.408   1.215   0.247
 3435W        W10744   8.104   1.600   9.323
 3436W        W10745   7.096   5.773   7.230
 3437W        W10746   4.493   1.175   9.705
 3438W        W10747   1.143   7.436   8.177
 3439W        W10748  10.641   9.758   7.252
 3440W        W10749   3.578   9.283   0.449
 3441W        W10750  12.047   9.891   9.384
 3442W        W10751  12.740   4.057   9.858
 3443W        W10752   6.611   8.812   0.060
 3444W        W10753  13.587   0.851   7.540
 3445W        W10754  11.103   9.730   7.560
 3446W        W10755  12.227   1.795   9.254
 3447W        W10756   1.632   8.028   9.751
 3448W        W10757  19.289   1.614   5.846
 3449W        W10758  10.438   0.283   9.907
 3450W        W10759   2.600   0.745   1.035
 3451W        W10760  17.507   0.885   0.474
 3452W        W10761   5.358   5.160   8.983
 3453W        W10762   4.932   9.093   8.839
 3454W        W10763  11.279   3.520   0.351
 3455W        W10764   4.747   1.134   6.825
 3456W        W10765  12.007   4.654   7.482
 3457W        W10766  14.054   4.583   8.341
 3458W        W10767   4.346   6.950   8.817
 3459W        W10768   9.299   4.856   6.533
 3460W        W10769  14.899   0.325   9.737
 3461W        W10770  17.674   0.620   7.243
 3462W        W10771   2.434   9.309   7.514
 3463W        W10772  13.602   0.447   0.435
 3464W        W10773  15.253   5.288   0.923
 3465W        W10774   6.599   7.106   0.425
 3466W        W10775   6.718   1.660   8.166
 3467W        W10776   4.956   3.178   6.167
 3468W        W10777  12.750   6.802   9.286
 3469W        W10778   0.354   9.025   8.303
 3470W        W10779  18.698   2.210   7.911
 3471W        W10780  19.623   0.305   9.270
 3472W        W10781  19.068   2.341   7.574
 3473W        W10782  19.738   3.998   8.475
 3474W        W10783   7.920   2.159   0.439
 3475W        W10784  18.432   4.637   8.766
 3476W        W10785  12.897   8.446   7.724
 3477W        W10786   3.579   3.616   7.786
 3478W        W10787  15.382   4.039   7.673
 3479W        W10788  17.493   7.346   8.466
 3480W        W10789  16.207   3.517   9.377
 3481W        W10790   8.004   9.190   6.956
 3482W        W10791   2.038   6.137   0.369
 3483W        W10792  12.073   5.727   9.970
 3484W        W10793  12.178   3.755   8.777
 3485W        W10794  14.826   7.875   8.409
 3486W        W10795  12.831   3.076   7.622
 3487W        W10796   1.693   4.051   0.831
 3488W        W10797  18.973   4.634   8.661
 3489W        W10798  17.344   1.293   0.751
 3490W        W10799   9.169   7.898   9.168
 3491W        W10800   3.722   2.614   9.794
 3492W        W10801   5.169   0.203   6.958
 3493W        W10802   8.997   6.431   7.053
 3494W        W10803   8.083   5.155   6.271
 3495W        W10804  19.141   4.382   9.403
 3496W        W10805  15.313   4.627   9.978
 3497W        W10806  12.564   2.164   6.502
 3498W        W10807   5.413   0.215   6.496
 3499W        W10808   5.785   7.292   9.500
 3500W        W10809  18.544   0.377   8.644
 3501W        W10810  18.140   8.547   9.377
 3502W        W10811   6.103   7.692   7.404
 3503W        W10812   0.573   6.214   0.611
 3504W        W10813  18.231   9.679   8.184
 3505W        W10814   7.604   1.820   7.815
 3506W        W10815   8.368   6.150   7.250
 3507W        W10816  13.523   1.842   7.084
 3508W        W10817  10.929   0.923   8.595
 3509W        W10818   3.414   2.932   0.612
 3510W        W10819   6.707   0.401   8.114
 3511W        W10820  15.614   6.374   0.842
 3512W        W10821   8.435   5.071   0.938
 3513W        W10822   3.037   0.833   9.754
 3514W        W10823  18.544   7.824   9.779
 3515W        W10824   2.058   6.413   8.378
 3516W        W10825  15.864   9.063   7.783
 3517W        W10826  12.457   2.692   0.695
 3518W        W10827  13.804   8.152   6.490
 3519W        W10828  14.496   3.190   7.016
 3520W        W10829  11.770   2.039   6.060
 3521W        W10830  17.849   2.883   7.701
 3522W        W10831   1.500   0.216   9.787
 3523W        W10832   6.992   8.519   1.145
 3524W        W10833   4.236   0.967   8.979
 3525W        W10834   2.111   7.497   0.667
 3526W        W10835  16.958   4.392   7.716
 3527W        W10836   6.657   5.230   0.045
 3528W        W10837   7.318   3.991   7.145
 3529W        W10838  12.999   7.104   0.770
 3530W        W10839   3.129   4.668   6.566
 3531W        W10840   5.972   9.740   6.075
 3532W        W10841  14.558   3.685   0.561
 3533W        W10842  17.892   3.184   8.477
 3534W        W10843  12.304   6.140   8.244
 3535W        W10844  12.453   9.358   6.804
 3536W        W10845  17.028   9.715   6.897
 3537W        W10846  17.695   0.818   6.062
 3538W        W10847  16.544   7.615   8.397
 3539W        W10848  19.282   1.652   6.939
 3540W        W10849  15.783   4.698   9.774
 3541W        W10850   4.317   6.020   7.291
 3542W        W10851   0.612   1.817   7.322
 3543W        W10852   0.685   4.841   9.692
 3544W        W10853  13.415   9.198   8.932
 3545W        W10854  10.745   3.459   7.256
 3546W        W10855  17.275   0.317   7.136
 3547W        W10856   5.985   2.267   7.290
 3548W        W10857   7.410   7.037   8.108
 3549W        W10858   4.069   1.435   8.819
 3550W        W10859   5.649   1.599   9.157
 3551W        W10860  19.893   6.813   6.374
 3552W        W10861   5.724   0.675   8.382
 3553W        W10862  12.825   8.499   7.232
 3554W        W10863  13.132   1.300   9.079
 3555W        W10864  13.370   8.868   0.783
 3556W        W10865   8.116   6.495   6.078
 3557W        W10866  10.866   0.102   7.837
 3558W        W10867  16.757   2.085   0.472
 3559W        W10868  11.589   1.858   7.923
 3560W        W10869   2.115   6.033   9.525
 3561W        W10870  10.845   6.388   6.972
 3562W        W10871  16.184   8.878   8.993
 3563W        W10872   9.466   0.232   6.575
 3564W        W10873  12.233   7.612   6.394
 3565W        W10874  10.366   3.211   7.024
 3566W        W10875  12.818   4.948   9.136
 3567W        W10876  15.945   1.238   8.960
 3568W        W10877   1.085   8.063   8.899
 3569W        W10878  16.339   2.207   0.187
 3570W        W10879   3.781   3.700   6.318
 3571W        W10880   0.882   5.385   7.654
 3572W        W10881  13.692   8.354   8.738
 3573W        W10882  12.335   7.568   6.923
 3574W        W10883   2.632   8.039   7.866
 3575W        W10884  16.934   8.823   7.566
 3576W        W10885   1.796   0.799   5.932
 3577W        W10886   4.874   6.177   8.397
 3578W        W10887   7.744   3.690   7.975
 3579W        W10888  15.731   1.634   7.508
 3580W        W10889  18.427   1.223   7.717
 3581W        W10890  14.551   1.220   9.940
 3582W        W10891  15.602   1.176   9.860
 3583W        W10892   1.148   1.645   6.063
 3584W        W10893  19.587   6.420   0.253
 3585W        W10894   9.712   0.486   9.712
 3586W        W10895  18.833   8.296   8.916
 3587W        W10896  12.078   7.226   9.816
 3588W        W10897  13.057   9.595   6.076
 3589W        W10898   6.779   9.925   8.274
 3590W        W10899  19.640   1.481   0.832
 3591W        W10900   9.134   0.731   8.136
 3592W        W10901   0.391   0.343   8.247
 3593W        W10902   4.679   1.610   7.059
 3594W        W10903   6.061   0.828   1.685
 3595W        W10904   7.246   3.680   7.918
 3596W        W10905   6.970   9.620   7.553
 3597W        W10906   1.696   5.200   6.767
 3598W        W10907   5.366   9.353   8.995
 3599W        W10908  12.478   0.651   9.178
 3600W        W10909   2.404   1.516   0.189
 3601W        W10910   6.419   3.469   9.226
 3602W        W10911  19.224   5.041   6.684
 3603W        W10912   3.302   8.481   9.600
 3604W        W10913   3.735   1.439   9.228
 3605W        W10914  11.589   6.249   7.547
 3606W        W10915   6.203   3.225   8.738
 3607W        W10916   8.058   0.395   7.788
 3608W        W10917  13.134   1.333   0.095
 3609W        W10918   1.259   1.241   7.838
 3610W        W10919  14.734   0.826   9.638
 3611W        W10920  16.741   3.926   7.897
 3612W        W10921   2.922   7.833   0.119
 3613W        W10922  19.292   8.700   0.606
 3614W        W10923  10.042   0.691   6.641
 3615W        W10924   8.155   4.599   9.751
 3616W        W10925  15.342   2.541   0.311
 3617W        W10926   6.129   6.172   6.285
 3618W        W10927  10.978   2.506   7.064
 3619W        W10928   6.385   1.636   8.948
 3620W        W10929   7.422   2.235   0.167
 3621W        W10930   9.801   8.230   8.772
 3622W        W10931  10.191   5.469   0.791
 3623W        W10932   8.626   5.868   9.364
 3624W        W10933  12.631   8.035   7.103
 3625W        W10934  11.478   1.634   0.543
 3626W        W10935   1.667   3.734   6.372
 3627W        W10936   1.099   4.361   5.947
 3628W        W10937   4.705   6.885   6.875
 3629W        W10938  16.287   6.419   0.170
 3630W        W10939   8.470   3.505   9.293
 3631W        W10940   8.239   4.615   8.847
 3632W        W10941  11.460   0.257   9.941
 3633W        W10942   1.769   0.951   0.030
 3634W        W10943  13.368   2.182   7.826
 3635W        W10944  18.108   3.458   9.725
 3636W        W10945   8.491   7.899   8.080
 3637W        W10946   1.951   9.365   8.797
 3638W        W10947  14.795   9.694   1.006
 3639W        W10948   2.993   0.796   8.833
 3640W        W10949   8.499   2.933   9.668
 3641W        W10950   3.223   6.183   8.925
 3642W        W10951   3.036   8.532   7.264
 3643W        W10952  10.219   5.879   0.441
 3644W        W10953   8.753   7.184   0.034
 3645W        W10954  14.844   7.691   9.930
 3646W        W10955  13.953   9.745   7.907
 3647W        W10956   0.374   0.144   0.862
 3648W        W10957  16.440   2.050   7.087
 3649W        W10958  14.059   3.094   8.327
 3650W        W10959   4.878   3.540   8.402
 3651W        W10960   4.131   5.453   6.028
 3652W        W10961  18.793   9.156   9.900
 3653W        W10962   3.909   8.386   7.955
 3654W        W10963  18.916   5.211   0.969
 3655W        W10964   7.080   0.875   0.900
 3656W        W10965  12.848   6.556   9.736
 3657W        W10966  11.020   8.512   7.074
 3658W        W10967   2.060   2.848   6.504
 3659W        W10968   3.794   9.747   7.193
 3660W        W10969  16.510   1.623   0.358
 3661W        W10970  16.722   8.677   8.888
 3662W        W10971   8.925   8.650   7.468
 3663W        W10972   8.500   5.462   8.442
 3664W        W10973  14.219   2.501   0.231
 3665W        W10974   2.483   0.709   8.887
 3666W        W10975  11.209   3.422   7.006
 3667W        W10976   7.629   6.329   6.771
 3668W        W10977   0.603   5.333   9.818
 3669W        W10978  15.986   3.616   7.160
 3670W        W10979  19.118   1.483   8.408
 3671W        W10980   1.453   6.890   7.321
 3672W        W10981   2.800   6.481   7.450
 3673W        W10982  15.966   3.588   7.668
 3674W        W10983   7.610   5.937   0.506
 3675W        W10984  17.411   3.054   9.198
 3676W        W10985   1.121   6.612   0.703
 3677W        W10986  12.589   3.621   0.680
 3678W        W10987  10.096   3.593   8.092
 3679W        W10988  15.693   7.719   8.843
 3680W        W10989   2.527   9.197   6.611
 3681W        W10990   6.237   0.518   6.315
 3682W        W10991  18.699   2.631   9.207
 3683W        W10992  14.405   0.316   7.934
 3684W        W10993  18.248   2.091   8.175
 3685W        W10994   3.135   4.188   0.644
 3686W        W10995  12.411   2.190   7.945
 3687W        W10996   7.366   1.625   7.390
 3688W        W10997   9.989   4.211   9.771
 3689W        W10998   7.586   7.034   7.628
 3690W        W10999   0.190   9.885   8.144
 3691W        W11000   8.768   5.951   7.009
 3692W        W11001   1.614   5.435   0.910
 3693W        W11002  10.901   9.664   8.596
 3694W        W11003   0.097   2.498   0.902
 3695W        W11004  12.994   2.697   8.973
 3696W        W11005  18.718   1.287   0.001
 3697W        W11006  19.646   7.378   9.570
 3698W        W11007   2.081   7.056   9.772
 3699W        W11008   5.410   0.242   7.953
 3700W        W11009   4.166   6.488   7.474
 3701W        W11010   4.893   9.915   9.451
 3702W        W11011  17.852   2.610   0.269
 3703W        W11012   3.390   2.573   8.227
 3704W        W11013  12.067   3.491   0.915
 3705W        W11014   6.003   8.884   9.451
 3706W        W11015   1.857   7.483   7.623
 3707W        W11016  11.673   6.852   6.784
 3708W        W11017  15.415   4.909   7.760
 3709W        W11018   1.149   7.542   6.486
 3710W        W11019  12.809   2.553   8.459
 3711W        W11020   3.305   9.731   0.481
 3712W        W11021  14.926   7.736   7.919
 3713W        W11022  10.745   1.228   9.983
 3714W        W11023  12.777   8.057   8.505
 3715W        W11024  15.429   6.697   7.264
 3716W        W11025  19.071   4.388   9.940
 3717W        W11026   4.488   9.564   9.398
 3718W        W11027  19.501   0.665   0.565
 3719W        W11028  11.423   5.503   6.326
 3720W        W11029  12.433   8.922   5.940
 3721W        W11030  17.614   0.320   9.710
 3722W        W11031   1.183   4.534   9.046
 3723W        W11032  13.020   4.519   9.851
 3724W        W11033   0.800   4.413   7.732
 3725W        W11034  18.430   7.915   7.470
 3726W        W11035  12.515   5.321   0.380
 3727W        W11036   1.304   6.400   7.237
 3728W        W11037  12.037   3.042   0.215
 3729W        W11038  11.695   8.199   9.881
 3730W        W11039   9.114   5.473   8.554
 3731W        W11040  12.637   9.745   0.358
 3732W        W11041  17.125   9.448   7.373
 3733W        W11042  12.307   3.804   6.899
 3734W        W11043  13.971   1.134   8.706
 3735W        W11044   0.801   4.321   9.967
 3736W        W11045   8.945   3.059   0.404
 3737W        W11046   1.662   0.232   9.280
 3738W        W11047  19.977   8.805   0.892
 3739W        W11048   6.604   1.621   9.425
 3740W        W11049   6.398   1.087   0.100
 3741W        W11050   3.161   8.726   8.427
 3742W        W11051  12.117   1.275   6.599
 3743W        W11052   8.588   7.375   0.864
 3744W        W11053  18.280   5.233   0.613
 3745W        W11054   2.371   7.016   6.658
 3746W        W11055   0.412   1.568   8.951
 3747W        W11056  10.099   0.838   0.521
 3748W        W11057   5.199   4.093   0.729
 3749W        W11058   3.526   6.270   9.479
 3750W        W11059   9.031   1.396   8.675
 3751W        W11060  13.132   9.227   9.947
 3752W        W11061  10.768   3.697   9.992
 3753W        W11062  10.726   4.173   0.708
 3754W        W11063  12.303   6.544   6.189
 3755W        W11064   0.661   3.375   6.553
 3756W        W11065   2.682   0.842   7.494
 3757W        W11066  14.570   9.933   6.611
 3758W        W11067  11.068   2.980   6.077
 3759W        W11068   8.148   6.389   9.059
 3760W        W11069   4.310   7.370   8.496
 3761W        W11070   2.809   8.844   0.805
 3762W        W11071  13.421   6.848   0.625
 3763W        W11072   6.270   6.504   9.462
 3764W        W11073   7.664   0.227   7.442
 3765W        W11074   6.641   6.159   0.523
 3766W        W11075   0.009   0.086   9.888
 3767W        W11076   0.006   1.952   9.365
 3768W        W11077   9.922   2.982   9.501
 3769W        W11078  11.612   9.150   9.252
 3770W        W11079   7.900   7.408   7.112
 3771W        W11080   3.001   6.617   6.184
 3772W        W11081  12.859   1.474   0.526
 3773W        W11082  11.361   5.834   7.785
 3774W        W11083  14.377   1.674   9.765
 3775W        W11084   3.752   2.311   8.476
 3776W        W11085   1.909   1.435   7.034
 3777W        W11086  18.785   6.528   7.959
 3778W        W11087   5.925   9.233   9.824
 3779W        W11088   5.248   8.992   7.331
 3780W        W11089   4.492   1.981   9.523
 3781W        W11090   7.655   0.135   8.523
 3782W        W11091   2.314   8.753   6.736
 3783W        W11092   9.704   2.183   6.599
 3784W        W11093  16.378   5.380   9.610
 3785W        W11094   3.885   1.899   8.717
 3786W        W11095  16.648   5.298   7.346
 3787W        W11096  13.465   3.577   8.590
 3788W        W11097   2.537   4.706   9.468
 3789W        W11098  16.451   8.464   6.930
 3790W        W11099   8.419   7.423   6.371
 3791W        W11100  19.634   2.279   0.464
 3792W        W11101  11.153   9.048   6.317
 3793W        W11102   7.132   3.726   6.725
 3794W        W11103   8.662   8.696   9.152
 3795W        W11104  13.481   2.244   8.333
 3796W        W11105   7.505   0.274   0.399
 3797W        W11106   3.046   1.900   7.021
 3798W        W11107  10.268   6.053   6.295
 3799W        W11108   3.385   8.381   0.095
 3800W        W11109   1.206   6.605   9.738
 3801W        W11110   4.274   8.814   0.839
 3802W        W11111   1.240   6.066   8.475
 3803W        W11112   6.557   5.819   6.938
 3804W        W11113  13.366   3.215   6.427
 3805W        W11114   7.934   7.347   6.585
 3806W        W11115   7.231   2.991   8.384
 3807W        W11116   4.866   7.151   6.437
 3808W        W11117   1.772   5.206   8.002
 3809W        W11118  13.328   8.976   6.909
 3810W        W11119  14.950   7.559   6.446
 3811W        W11120   3.609   5.352   8.530
 3812W        W11121   6.970   9.476   8.055
 3813W        W11122  16.421   4.138   0.663
 3814W        W11123  19.480   4.930   8.440
 3815W        W11124   6.348   0.525   9.636
 3816W        W11125  15.579   2.321   7.537
 3817W        W11126   4.235   9.582   7.883
 3818W        W11127   4.207   1.534   8.320
 3819W        W11128  12.171   5.123   7.330
 3820W        W11129  13.979   0.193   8.184
 3821W        W11130   0.319   4.452   8.454
 3822W        W11131  15.019   1.999   0.808
 3823W        W11132   7.573   3.556   6.952
 3824W        W11133  18.457   7.028   9.538
 3825W        W11134  16.280   5.493   0.101
 3826W        W11135  19.709   9.776   8.557
 3827W        W11136  18.204   6.535   6.812
 3828W        W11137  18.701   1.464   1.059
 3829W        W11138   0.752   9.899   8.892
 3830W        W11139  10.869   1.630   7.380
 3831W        W11140  16.672   7.490   7.078
 3832W        W11141   4.263   9.766   6.414
 3833W        W11142  11.126   1.246   8.973
 3834W        W11143   5.941   9.246   6.208
 3835W        W11144   7.132   9.412   9.477
 3836W        W11145   6.680   6.462   8.661
 3837W        W11146   7.017   5.688   6.731
 3838W        W11147  14.530   7.691   6.143
 3839W        W11148   7.679   0.541   8.144
 3840W        W11149  13.954   8.300   0.538
 3841W        W11150   3.615   3.203   9.271
 3842W        W11151  17.156   8.833   9.905
 3843W        W11152  17.006   2.940   8.411
 3844W        W11153   9.920   7.720   0.733
 3845W        W11154  12.721   0.205   6.808
 3846W        W11155   6.953   5.898   7.706
 3847W        W11156   4.774   8.772   8.061
 3848W        W11157   0.839   4.791   0.168
 3849W        W11158  18.342   6.085   9.659
 3850W        W11159  18.987   5.407   7.471
 3851W        W11160  12.361   8.078   6.177
 3852W        W11161   3.563   5.048   9.948
 3853W        W11162   9.479   7.092   9.408
 3854W        W11163   1.364   3.626   7.423
 3855W        W11164  10.426   8.407   0.205
 3856W        W11165  18.030   4.623   7.947
 3857W        W11166  13.150   8.894   0.327
 3858W        W11167   2.836   2.691   0.102
 3859W        W11168  11.613   0.137   9.472
 3860W        W11169   3.240   4.109   0.138
 3861W        W11170  10.995   3.252   8.257
 3862W        W11171   8.325   7.459   7.410
 3863W        W11172  14.279   1.630   7.374
 3864W        W11173   9.270   0.649   0.637
 3865W        W11174  13.412   3.577   8.078
 3866W        W11175   5.607   5.872   8.560
 3867W        W11176  17.362   1.688   8.438
 3868W        W11177   9.462   6.106   9.114
 3869W        W11178  13.070   3.324   6.809
 3870W        W11179  10.199   0.487   9.509
 3871W        W11180   5.637   3.745   6.379
 3872W        W11181   5.521   2.153   9.029
 3873W        W11182   2.432   9.425   9.612
 3874W        W11183   4.208   2.869   6.703
 3875W        W11184  10.479   2.256   0.983
 3876W        W11185   5.237   0.230   0.331
 3877W        W11186   0.159   8.561   8.120
 3878W        W11187  19.614   4.000   0.593
 3879W        W11188  19.757   6.127   9.524
 3880W        W11189  19.267   3.069   9.733
 3881W        W11190  16.905   6.552   7.529
 3882W        W11191   7.700   5.657   8.021
 3883W        W11192  15.059   1.052   7.344
 3884W        W11193  10.920   9.269   7.715
 3885W        W11194  15.090   6.149   8.722
 3886W        W11195  11.241   4.043   0.477
 3887W        W11196   4.322   8.273   7.050
 3888W        W11197  11.768   3.850   6.833
 3889W        W11198  18.066   1.398   6.401
 3890W        W11199   7.351   6.818   8.557
 3891W        W11200  13.809   7.477   8.860
 3892W        W11201  14.620   0.925   0.977
 3893W        W11202  11.740   6.919   0.078
 3894W        W11203  17.735   6.923   8.304
 3895W        W11204  15.843   4.640   0.836
 3896W        W11205  18.404   3.056   0.246
 3897W        W11206   5.399   3.403   0.158
 3898W        W11207   4.404   3.915   7.746
 3899W        W11208  16.019   3.288   0.319
 3900W        W11209   1.284   0.684   9.936
 3901W        W11210  13.847   3.023   6.585
 3902W        W11211   1.811   2.984   8.377
 3903W        W11212  15.428   5.076   8.222
 3904W        W11213  12.575   1.077   7.293
 3905W        W11214  12.130   9.760   7.364
 3906W        W11215  19.701   2.178   8.952
 3907W        W11216   7.082   4.077   7.620
 3908W        W11217  12.296   3.204   8.895
 3909W        W11218   2.443   1.171   9.125
 3910W        W11219  10.098   4.560   8.094
 3911W        W11220  16.509   0.583   7.954
 3912W        W11221  12.404   6.158   9.232
 3913W        W11222   4.585   3.585   9.308
 3914W        W11223   6.438   2.050   0.174
 3915W        W11224  18.201   1.203   8.700
 3916W        W11225  19.865   8.347   8.840
 3917W        W11226  14.388   0.803   8.694
 3918W        W11227  18.923   9.329   9.035
 3919W        W11228  13.039   4.500   9.321
 3920W        W11229  19.603   6.559   9.754
 3921W        W11230   9.930   5.398   7.520
 3922W        W11231  14.999   4.985   7.008
 3923W        W11232   2.413   5.036   6.802
 3924W        W11233  10.130   2.500   9.428
 3925W        W11234  13.190   1.874   0.669
 3926W        W11235   5.169   8.512   9.544
 3927W        W11236  14.774   4.575   6.783
 3928W        W11237   8.853   0.366   0.274
 3929W        W11238  17.501   5.075   0.075
 3930W        W11239  16.003   9.325   6.522
 3931W        W11240   2.689   0.570   8.425
 3932W        W11241  16.934   2.065   8.932
 3933W        W11242  16.444   0.809   8.462
 3934W        W11243  14.610   8.836   0.723
 3935W        W11244   9.645   8.202   9.752
 3936W        W11245   6.699   1.369   8.623
 3937W        W11246  15.629   5.608   9.262
 3938W        W11247  14.747   9.874   0.002
 3939W        W11248   1.482   9.737   9.271
 3940W        W11249  16.012   1.933   0.453
 3941W        W11250   4.624   1.628   9.184
 3942W        W11251  13.532   6.000   0.970
 3943W        W11252  18.372   0.799   9.467
 3944W        W11253  16.269   6.053   8.629
 3945W        W11254  15.280   2.307   6.629
 3946W        W11255  17.844   3.936   9.164
 3947W        W11256  10.695   6.053   6.601
 3948W        W11257  16.388   4.877   7.187
 3949W        W11258   8.540   3.892   6.586
 3950W        W11259   5.307   1.697   9.897
 3951W        W11260  11.165   5.844   9.806
 3952W        W11261   6.200   7.953   6.940
 3953W        W11262  11.606   8.533   7.970
 3954W        W11263  13.049   5.883   0.339
 3955W        W11264  19.731   5.630   0.681
 3956W        W11265   4.688   3.550   6.395
 3957W        W11266   5.203   8.971   9.300
 3958W        W11267  11.461   6.980   9.636
 3959W        W11268   2.086   0.103   7.201
 3960W        W11269   7.985   4.132   8.846
 3961W        W11270  10.209   6.834   8.552
 3962W        W11271   4.841   3.935   6.937
 3963W        W11272   5.491   2.140   7.481
 3964W        W11273  12.030   7.796   9.007
 3965W        W11274   6.645   5.064   8.689
 3966W        W11275   9.705   7.889   7.289
 3967W        W11276  19.156   4.070   0.363
 3968W        W11277   6.833   2.146   8.849
 3969W        W11278  14.425   3.406   9.236
 3970W        W11279   9.809   3.979   8.413
 3971W        W11280  10.408   1.045   8.416
 3972W        W11281  17.985   7.787   9.695
 3973W        W11282  12.093   4.250   6.776
 3974W        W11283   4.920   9.379   0.176
 3975W        W11284   4.597   9.242   9.789
 3976W        W11285  19.898   4.460   6.716
 3977W        W11286   2.321   1.954   0.496
 3978W        W11287  10.262   4.043   9.357
 3979W        W11288  11.200   4.371   9.871
 3980W        W11289  11.834   3.932   8.432
 3981W        W11290  11.612   7.384   9.916
 3982W        W11291   6.686  10.000   7.771
 3983W        W11292   8.418   5.392   9.314
 3984W        W11293  10.580   6.232   0.342
 3985W        W11294   0.961   2.207   9.329
 3986W        W11295  13.053   5.895   5.753
 3987W        W11296  16.419   3.545   6.880
 3988W        W11297   5.603   8.435   7.461
 3989W        W11298  19.346   3.557   0.497
 3990W        W11299   1.944   4.958   9.378
 3991W        W11300   8.071   4.726   0.802
 3992W        W11301  10.586   7.849   8.770
 3993W        W11302   0.771   8.354   7.381
 3994W        W11303  13.430   1.816   6.128
 3995W        W11304   1.071   1.638   7.110
 3996W        W11305   0.678   0.661   8.773
 3997W        W11306   7.643   4.976   0.684
 3998W        W11307   7.466   0.874   7.757
 3999W        W11308  10.800   6.349   0.881
 4000W        W11309   3.027   4.212   6.767
 4001W        W11310   6.878   9.252   9.883
 4002W        W11311  10.974   5.521   6.108
 4003W        W11312   8.593   2.349   7.908
 4004W        W11313   0.198   6.727   7.372
 4005W        W11314  13.074   6.087   8.858
 4006W        W11315  17.944   6.979   9.748
 4007W        W11316  14.914   1.366   8.317
 4008W        W11317   8.964   2.791   6.173
 4009W        W11318   8.393   6.097   7.780
 4010W        W11319   9.587   8.496   6.721
 4011W        W11320   0.212   7.193   8.499
 4012W        W11321  15.721   6.832   0.608
 4013W        W11322   2.293   0.803   5.872
 4014W        W11323   0.537   2.056   0.239
 4015W        W11324  12.603   3.569   0.150
 4016W        W11325  11.494   8.835   0.655
 4017W        W11326  17.344   2.416   7.253
 4018W        W11327  18.544   0.490   0.712
 4019W        W11328  19.097   9.725   7.434
 4020W        W11329  13.808   1.920   8.596
 4021W        W11330  11.691   9.022   7.936
 4022W        W11331   0.502   0.259   9.730
 4023W        W11332   7.756   5.552   6.146
 4024W        W11333   2.677   9.327   7.077
 4025W        W11334  17.374   0.615   6.425
 4026W        W11335   4.217   4.009   9.813
 4027W        W11336   8.468   7.926   7.068
 4028W        W11337   4.116   1.826   9.171
 4029W        W11338  16.242   8.810   9.976
 4030W        W11339  18.386   6.840   0.574
 4031W        W11340   3.205   7.302   7.742
 4032W        W11341   5.183   3.192   7.783
 4033W        W11342   3.358   3.241   8.043
 4034W        W11343   6.225   5.629   8.913
 4035W        W11344   6.717   6.515   9.170
 4036W        W11345   1.335   7.592   9.768
 4037W        W11346  10.499   0.177   8.585
 4038W        W11347   2.283   2.280   6.669
 4039W        W11348   7.965   3.451   9.284
 4040W        W11349   9.193   4.111   0.151
 4041W        W11350  11.639   2.768   7.693
 4042W        W11351  15.221   6.741   0.791
 4043W        W11352  10.790   6.379   8.747
 4044W        W11353  19.935   0.240   8.445
 4045W        W11354  18.717   1.719   7.677
 4046W        W11355  11.696   9.135   9.748
 4047W        W11356   2.649   0.836   6.297
 4048W        W11357   8.298   3.125   7.553
 4049W        W11358  14.760   1.129   6.930
 4050W        W11359  13.048   2.596   7.047
 4051W        W11360   9.315   8.110   6.424
 4052W        W11361   9.269   4.056   9.278
 4053W        W11362   6.512   3.631   8.319
 4054W        W11363  19.212   2.328   8.870
 4055W        W11364   9.719   5.564   9.889
 4056W        W11365   7.175   3.933   8.447
 4057W        W11366   5.236   9.818   7.724
 4058W        W11367  11.924   6.772   9.612
 4059W        W11368  13.479   4.502   0.152
 4060W        W11369  15.301   8.602   9.868
 4061W        W11370  10.781   2.068   0.319
 4062W        W11371   6.029   5.015   0.427
 4063W        W11372   8.947   5.430   9.363
 4064W        W11373  15.055   8.239   8.066
 4065W        W11374   1.118   8.452   9.292
 4066W        W11375   1.620   1.249   6.115
 4067W        W11376   9.598   9.111   9.755
 4068W        W11377   0.869   8.855   6.485
 4069W        W11378   2.171   8.275   9.261
 4070W        W11379   3.886   8.258   0.273
 4071W        W11380   3.273   5.328   1.230
 4072W        W11381  17.255   9.496   9.661
 4073W        W11382   0.773   2.047   7.782
 4074W        W11383   4.582   4.453   7.880
 4075W        W11384   7.297   0.584   6.700
 4076W        W11385   3.983   9.329   6.318
 4077W        W11386  14.447   5.917   9.993
 4078W        W11387  17.891   1.359   6.896
 4079W        W11388  18.177   0.317   6.802
 4080W        W11389  17.019   3.415   8.624
 4081W        W11390  10.859   5.204   7.481
 4082W        W11391   7.584   3.020   0.600
 4083W        W11392  10.739   9.278   8.292
 4084W        W11393  10.177   8.007   8.487
 4085W        W11394  17.930   1.782   0.785
 4086W        W11395  16.262   3.024   5.510
 4087W        W11396   9.638   8.831   9.307
 4088W        W11397   3.857   7.291   7.027
 4089W        W11398  12.835   0.465   0.135
 4090W        W11399  13.675   8.403   9.707
 4091W        W11400  11.997   2.558   0.497
 4092W        W11401  16.997   7.447   0.655
 4093W        W11402   8.770   9.666   8.084
 4094W        W11403   6.292   2.370   7.709
 4095W        W11404  14.265   3.218   0.567
 4096W        W11405   6.760   4.677   9.016
 4097W        W11406   2.811   8.039   7.323
 4098W        W11407  19.640   4.545   9.359
 4099W        W11408  10.043   0.216   8.830
 4100W        W11409  13.244   7.825   8.410
 4101W        W11410  12.024   0.567   7.350
 4102W        W11411   5.113   5.581   6.599
 4103W        W11412  19.539   6.995   7.854
 4104W        W11413   3.594   0.659   6.676
 4105W        W11414  12.072   4.371   9.610
 4106W        W11415   3.692   8.394   9.290
 4107W        W11416   6.167   6.172   0.303
 4108W        W11417   4.392   5.966   8.337
 4109W        W11418   1.651   4.470   8.328
 4110W        W11419  15.974   8.538   9.366
 4111W        W11420  14.817   4.635   0.224
 4112W        W11421   5.987   0.180   9.845
 4113W        W11422  19.109   1.556   8.932
 4114W        W11423   9.333   9.228   0.177
 4115W        W11424  11.449   8.663   9.777
 4116W        W11425   9.982   9.013   8.105
 4117W        W11426   7.070   8.458   6.141
 4118W        W11427  19.329   2.249   7.989
 4119W        W11428   2.247   4.973   0.355
 4120W        W11429   2.289   3.775   9.317
 4121W        W11430   4.237   9.491   0.722
 4122W        W11431   7.861   5.015   9.695
 4123W        W11432   2.172   1.848   6.914
 4124W        W11433   4.917   0.339   6.468
 4125W        W11434   2.846   0.091   9.331
 4126W        W11435   2.399   5.189   9.526
 4127W        W11436  19.804   2.059   0.937
 4128W        W11437   6.185   6.422   8.436
 4129W        W11438   7.354   5.482   0.318
 4130W        W11439   3.188   9.423   9.217
 4131W        W11440  19.456   3.581   8.254
 4132W        W11441   2.875   5.492   7.986
 4133W        W11442   0.652   1.334   7.034
 4134W        W11443   1.007   4.870   6.655
 4135W        W11444   0.612   5.977   7.909
 4136W        W11445   1.872   9.705   0.684
 4137W        W11446  19.204   9.279   6.753
 4138W        W11447  18.317   9.122   0.686
 4139W        W11448   6.804   7.682   8.512
 4140W        W11449   2.293   8.844   0.937
 4141W        W11450   8.427   5.335   6.691
 4142W        W11451   0.501   5.291   0.664
 4143W        W11452  14.352   9.400   7.386
 4144W        W11453   2.532   4.905   9.934
 4145W        W11454   6.296   3.757   8.801
 4146W        W11455  17.002   7.332   9.664
 4147W        W11456   5.938   4.610   8.321
 4148W        W11457  10.138   8.213   8.030
 4149W        W11458   3.420   8.581   7.945
 4150W        W11459  17.443   1.722   9.982
 4151W        W11460   3.710   9.235   9.950
 4152W        W11461  15.335   6.010   8.313
 4153W        W11462   5.757   8.775   6.650
 4154W        W11463  18.214   2.156   7.111
 4155W        W11464  10.539   5.862   7.936
 4156W        W11465  19.954   8.033   6.491
 4157W        W11466  10.039   2.496   6.917
 4158W        W11467  16.787   7.485   7.965
 4159W        W11468  14.625   2.138   7.934
 4160W        W11469  18.667   2.674   7.629
 4161W        W11470   3.770   9.714   0.743
 4162W        W11471  16.191   1.732   9.981
 4163W        W11472   9.152   7.276   9.744
 4164W        W11473   0.615   3.990   7.467
 4165W        W11474  16.444   6.126   8.144
 4166W        W11475   6.362   5.358   0.597
 4167W        W11476   4.805   8.793   7.044
 4168W        W11477  11.355   1.166   8.519
 4169W        W11478   5.649   4.965   0.744
 4170W        W11479  14.136   4.986   6.058
 4171W        W11480   2.031   1.645   7.766
 4172W        W11481  19.067   7.206   7.821
 4173W        W11482  16.534   6.707   6.062
 4174W        W11483   6.635   9.995   7.267
 4175W        W11484  14.388   7.997   7.572
 4176W        W11485  19.384   3.127   0.803
 4177W        W11486  18.141   7.558   6.842
 4178W        W11487  19.389   9.821   9.265
 4179W        W11488   3.014   6.807   7.109
 4180W        W11489  15.814   4.636   9.263
 4181W        W11490  12.425   2.580   5.771
 4182W        W11491   1.505   4.740   6.615
 4183W        W11492  14.936   4.084   7.405
 4184W        W11493  10.048   5.027   7.185
 4185W        W11494  19.127   2.499   8.385
 4186W        W11495  19.432   3.962   9.300
 4187W        W11496  15.261   4.545   6.616
 4188W        W11497   0.595   6.398   8.360
 4189W        W11498  12.952   8.635   6.778
 4190W        W11499  15.961   2.737   7.119
 4191W        W11500   0.287   6.265   9.545
 4192W        W11501   8.435   2.978   6.647
 4193W        W11502  15.904   1.899   7.068
 4194W        W11503   0.876   1.250   8.282
 4195W        W11504   8.195   0.620   8.258
 4196W        W11505   0.883   0.883   0.888
 4197W        W11506   9.519   3.853   8.841
 4198W        W11507  17.738   7.307   8.923
 4199W        W11508   2.173   8.389   1.162
 4200W        W11509  10.687   5.470   0.960
 4201W        W11510   5.281   8.734   0.879
 4202W        W11511   2.666   7.939   9.689
 4203W        W11512   1.175   3.933   0.741
 4204W        W11513  12.955   6.181   7.566
 4205W        W11514   3.697   4.966   9.138
 4206W        W11515   4.440   1.127   6.218
 4207W        W11516   4.428   7.445   8.987
 4208W        W11517   5.427   3.575   7.533
 4209W        W11518  19.819   0.888   0.891
 4210W        W11519  16.406   6.773   6.619
 4211W        W11520   9.352   5.888   5.892
 4212W        W11521  12.797   1.667   8.395
 4213W        W11522   6.181   8.824   7.492
 4214W        W11523  17.915   5.858   8.392
 4215W        W11524  15.974   3.660   6.651
 4216W        W11525   7.132   7.002   6.614
 4217W        W11526  16.458   8.703   0.691
 4218W        W11527   1.080   8.365   8.411
 4219W        W11528   2.357   7.689   7.599
 4220W        W11529   4.412   6.798   6.444
 4221W        W11530   8.179   9.356   8.679
 4222W        W11531  12.534   8.754   9.086
 4223W        W11532  17.218   3.419   0.291
 4224W        W11533   0.638   9.195   6.162
 4225W        W11534  12.566   1.872   0.454
 4226W        W11535  19.251   1.027   8.198
 4227W        W11536   1.778   9.861   8.898
 4228W        W11537   7.425   4.408   8.482
 4229W        W11538  12.194   6.769   6.728
 4230W        W11539   8.678   9.774   9.817
 4231W        W11540   2.825   2.315   9.704
 4232W        W11541   4.582   2.177   0.962
 4233W        W11542   0.902   9.406   8.929
 4234W        W11543   1.150   8.415   0.203
 4235W        W11544  17.882   2.516   5.738
 4236W        W11545   0.364   9.331   9.836
 4237W        W11546  18.228   1.203   9.768
 4238W        W11547  10.007   1.478   6.263
 4239W        W11548  18.564   4.809   6.068
 4240W        W11549   9.053   9.863   9.434
 4241W        W11550   1.013   4.372   0.465
 4242W        W11551   7.042   3.817   0.446
 4243W        W11552  10.249   6.422   9.897
 4244W        W11553   7.488   6.034   8.962
 4245W        W11554   1.757   5.863   9.207
 4246W        W11555   4.286   0.610   6.125
 4247W        W11556   4.686   8.291   8.292
 4248W        W11557  11.957   9.077   8.760
 4249W        W11558   5.581   0.073   6.041
 4250W        W11559   8.131   1.855   9.774
 4251W        W11560   7.943   9.402   9.121
 4252W        W11561  18.385   1.825   6.365
 4253W        W11562  14.613   3.925   0.105
 4254W        W11563   5.679   6.974   9.961
 4255W        W11564   2.657   9.689   6.698
 4256W        W11565   9.153   9.356   6.245
 4257W        W11566   4.894   2.686   6.076
 4258W        W11567  12.702   5.876   6.773
 4259W        W11568   3.307   4.991   9.496
 4260W        W11569   7.035   6.406   7.856
 4261W        W11570   2.575   0.271   7.492
 4262W        W11571  10.819   7.460   7.661
 4263W        W11572   8.161   6.949   6.343
 4264W        W11573  18.743   7.375   0.063
 4265W        W11574  18.593   7.449   6.430
 4266W        W11575  14.854   0.135   7.723
 4267W        W11576   4.353   3.169   9.876
 4268W        W11577   6.733   0.864   8.420
 4269W        W11578  18.280   2.963   8.715
 4270W        W11579   9.474   2.436   7.862
 4271W        W11580  16.817   5.196   8.476
 4272W        W11581  12.695   4.008   8.810
 4273W        W11582  14.995   6.759   0.281
 4274W        W11583   8.821   9.412   9.483
 4275W        W11584   2.318   6.314   7.361
 4276W        W11585  13.970   6.330   7.461
 4277W        W11586   0.437   6.075   6.682
 4278W        W11587   0.804   6.000   0.193
 4279W        W11588  12.682   4.755   8.657
 4280W        W11589  19.171   3.941   8.477
 4281W        W11590  17.341   7.637   8.889
 4282W        W11591   5.361   6.963   7.510
 4283W        W11592   0.348   1.628   0.441
 4284W        W11593   8.073   3.830   6.196
 4285W        W11594   4.802   8.032   6.586
 4286W        W11595  12.517   6.455   7.479
 4287W        W11596  18.269   8.074   0.637
 4288W        W11597   6.776   4.033   7.174
 4289W        W11598   6.939   4.275   9.363
 4290W        W11599   5.981   4.437   9.390
 4291W        W11600  15.357   2.321   6.125
 4292W        W11601  12.153   3.830   7.864
 4293W        W11602   0.743   7.092   0.755
 4294W        W11603  12.719   6.457   8.880
 4295W        W11604   4.485   1.221   0.523
 4296W        W11605   1.689   4.256   6.476
 4297W        W11606   8.474   2.167   0.586
 4298W        W11607  19.348   7.782   8.455
 4299W        W11608  13.747   3.811   6.858
 4300W        W11609   8.018   9.997   0.994
 4301W        W11610  14.435   2.909   7.469
 4302W        W11611   1.752   3.611   9.356
 4303W        W11612  11.422   0.155   8.558
 4304W        W11613  18.273   5.164   6.707
 4305W        W11614   6.192   0.548   0.550
 4306W        W11615  13.758   2.659   8.268
 4307W        W11616  19.391   6.933   0.050
 4308W        W11617   1.185   5.869   9.350
 4309W        W11618   6.187   0.855   9.237
 4310W        W11619  13.031   9.406   8.088
 4311W        W11620  17.590   8.606   9.180
 4312W        W11621   7.980   5.099   8.778
 4313W        W11622   6.165   1.200   7.769
 4314W        W11623   4.224   7.837   8.741
 4315W        W11624  18.726   4.171   8.723
 4316W        W11625  18.828   9.517   8.570
 4317W        W11626   1.997   9.008   7.936
 4318W        W11627  19.654   5.011   7.487
 4319W        W11628   5.906   1.908   6.558
 4320W        W11629  15.115   8.744   9.039
 4321W        W11630  18.426   0.234   6.339
 4322W        W11631   6.295   7.428   9.256
 4323W        W11632  15.812   8.537   9.985
 4324W        W11633  10.113   3.252   1.014
 4325W        W11634  14.503   2.684   0.622
 4326W        W11635   3.680   5.470   6.273
 4327W        W11636  16.250   7.602   7.938
 4328W        W11637   5.672   4.867   7.118
 4329W        W11638   1.187   9.335   9.366
 4330W        W11639   2.726   6.374   8.827
 4331W        W11640   8.605   5.561   0.678
 4332W        W11641   3.659   4.225   0.580
 4333W        W11642  17.963   4.665   7.008
 4334W        W11643   0.829   7.571   9.856
 4335W        W11644  15.337   0.586   7.337
 4336W        W11645  16.027   4.499   7.235
 4337W        W11646   2.976   1.351   9.798
 4338W        W11647  16.577   0.663   0.022
 4339W        W11648  16.730   9.797   7.346
 4340W        W11649   7.509   3.150   8.784
 4341W        W11650   9.002   6.889   9.164
 4342W        W11651   7.675   7.730   8.634
 4343W        W11652  12.540   9.697   9.544
 4344W        W11653   9.084   9.915   0.106
 4345W        W11654   3.754   1.796   8.222
 4346W        W11655   4.615   6.177   8.830
 4347W        W11656   3.977   3.798   8.031
 4348W        W11657   2.645   1.015   0.565
 4349W        W11658   6.940   9.061   8.809
 4350W        W11659   6.047   4.456   0.399
 4351W        W11660  13.095   5.402   9.209
 4352W        W11661  16.073   5.023   0.267
 4353W        W11662   2.346   6.799   7.555
 4354W        W11663   8.343   2.186   0.106
 4355W        W11664  17.900   1.831   6.171
 4356W        W11665  17.314   1.268   9.739
 4357W        W11666  13.589   0.574   9.315
 4358W        W11667   0.325   8.503   9.745
 4359W        W11668   6.083   8.979   8.013
 4360W        W11669  17.731   6.438   0.214
 4361W        W11670   2.724   6.300   6.959
 4362W        W11671   5.002   8.880   0.402
 4363W        W11672  14.315   0.759   9.935
 4364W        W11673  14.074   0.109   1.253
 4365W        W11674   6.956   9.040   8.309
 4366W        W11675  17.170   6.292   6.231
 4367W        W11676  16.674   5.357   0.425
 4368W        W11677  11.458   8.319   7.323
 4369W        W11678   1.696   5.799   0.194
 4370W        W11679   3.804   8.377   9.793
 4371W        W11680  12.535   7.006   7.402
 4372W        W11681   2.297   6.053   9.061
 4373W        W11682   0.861   0.103   7.380
 4374W        W11683   4.474   7.642   9.840
 4375W        W11684   0.674   4.191   6.177
 4376W        W11685   3.783   5.928   0.387
 4377W        W11686  19.375   8.535   6.972
 4378W        W11687  18.677   0.843   7.980
 4379W        W11688   6.079   5.798   7.198
 4380W        W11689   7.575   8.273   7.263
 4381W        W11690   3.324   0.889   7.069
 4382W        W11691   4.498   6.527   8.476
 4383W        W11692   3.574   8.351   1.073
 4384W        W11693   5.387   4.553   0.670
 4385W        W11694  18.872   3.163   6.122
 4386W        W11695   4.696   0.975   0.147
 4387W        W11696   4.564   8.503   6.660
 4388W        W11697   8.659   6.334   9.603
 4389W        W11698  13.149   0.862   9.362
 4390W        W11699   5.044   6.651   8.502
 4391W        W11700  11.003   0.874   6.972
 4392W        W11701   8.000   0.903   0.537
 4393W        W11702  14.225   5.923   6.544
 4394W        W11703  14.281   8.892   8.200
 4395W        W11704  16.710   4.595   6.595
 4396W        W11705  16.801   4.850   9.402
 4397W        W11706   3.532   1.710   7.027
 4398W        W11707   6.769   7.271   9.078
 4399W        W11708   5.978   9.235   6.732
 4400W        W11709   3.823   6.482   9.861
 4401W        W11710  14.439   5.612   9.579
 4402W        W11711   5.600   9.282   9.436
 4403W        W11712  12.988   9.986   6.401
 4404W        W11713   5.887   8.438   0.749
 4405W        W11714   4.192   2.067   8.307
 4406W        W11715   6.167   7.205   6.098
 4407W        W11716  12.526   6.617   8.411
 4408W        W11717  19.888   9.886   0.384
 4409W        W11718   1.465   6.794   0.180
 4410W        W11719   3.493   9.905   6.814
 4411W        W11720   0.739   8.377   6.858
 4412W        W11721  16.853   9.217   0.086
 4413W        W11722   3.084   7.083   0.589
 4414W        W11723  14.724   7.487   7.127
 4415W        W11724   1.106   5.847   8.037
 4416W        W11725   9.734   4.653   6.371
 4417W        W11726   0.265   4.467   0.931
 4418W        W11727  10.785   5.852   8.867
 4419W        W11728   5.717   3.271   8.429
 4420W        W11729   8.548   0.262   8.412
 4421W        W11730  13.342   3.453   7.564
 4422W        W11731   8.764   8.806   6.990
 4423W        W11732  17.271   5.131   9.343
 4424W        W11733   7.181   7.879   9.322
 4425W        W11734   4.023   5.123   0.996
 4426W        W11735   9.824   3.803   6.889
 4427W        W11736  11.999   1.611   6.210
 4428W        W11737  15.046   8.798   7.690
 4429W        W11738  16.026   4.408   8.285
 4430W        W11739  17.752   5.901   6.734
 4431W        W11740  16.979   6.184   0.656
 4432W        W11741   0.928   2.847   8.019
 4433W        W11742   4.168   6.381   6.978
 4434W        W11743   6.600   0.645   6.748
 4435W        W11744  18.262   8.032   7.002
 4436W        W11745   2.762   4.995   0.386
 4437W        W11746  11.026   2.388   8.218
 4438W        W11747   9.573   9.196   7.358
 4439W        W11748  13.350   3.199   9.857
 4440W        W11749   9.763   0.512   0.744
 4441W        W11750   8.358   2.045   9.180
 4442W        W11751   7.996   5.641   8.430
 4443W        W11752   8.483   1.230   0.763
 4444W        W11753   7.638   6.451   9.208
 4445W        W11754  13.635   7.900   0.631
 4446W        W11755   2.066   3.735   6.028
 4447W        W11756   2.340   4.985   9.063
 4448W        W11757   0.313   2.955   6.545
 4449W        W11758   9.920   0.653   9.103
 4450W        W11759  19.676   5.137   0.610
 4451W        W11760  15.730   8.920   9.624
 4452W        W11761   0.210   5.100   8.845
 4453W        W11762   8.023   2.986   0.874
 4454W        W11763  11.538   4.409   0.290
 4455W        W11764   5.525   6.831   9.475
 4456W        W11765   9.075   5.450   6.162
 4457W        W11766   3.348   0.172   8.135
 4458W        W11767  15.190   9.326   8.470
 4459W        W11768   6.929   5.538   6.237
 4460W        W11769  18.231   1.644   8.438
 4461W        W11770  11.179   8.215   9.893
 4462W        W11771  11.311   7.912   8.275
 4463W        W11772   9.812   8.842   7.084
 4464W        W11773  15.714   6.960   9.757
 4465W        W11774  13.442   6.369   6.562
 4466W        W11775  19.615   7.983   7.486
 4467W        W11776   5.587   4.205   0.373
 4468W        W11777   6.205   8.852   6.971
 4469W        W11778   9.690   4.699   5.862
 4470W        W11779   7.712   8.748   7.118
 4471W        W11780  19.103   4.767   6.259
 4472W        W11781  10.419   0.199   7.081
 4473W        W11782  12.802   7.701   6.748
 4474W        W11783   3.120   6.089   9.785
 4475W        W11784   7.309   0.594   7.323
 4476W        W11785   5.821   8.419   9.677
 4477W        W11786  19.587   1.668   8.217
 4478W        W11787   1.114   7.815   7.803
 4479W        W11788  15.185   1.528   7.464
 4480W        W11789  12.122   4.883   0.944
 4481W        W11790  18.733   5.530   0.570
 4482W        W11791  16.887   1.051   6.709
 4483W        W11792  17.506   6.910   0.553
 4484W        W11793   2.156   9.230   0.614
 4485W        W11794  10.758   7.048   0.224
 4486W        W11795   5.480   6.783   0.800
 4487W        W11796  10.856   0.877   0.952
 4488W        W11797   2.106   4.133   7.203
 4489W        W11798   5.992   6.247   7.454
 4490W        W11799  18.850   0.759   9.930
 4491W        W11800  11.886   0.344   8.604
 4492W        W11801   0.083   0.279   7.832
 4493W        W11802  19.827   1.290   6.977
 4494W        W11803   1.318   9.768   6.206
 4495W        W11804   3.850   6.932   7.390
 4496W        W11805   3.778   9.690   0.217
 4497W        W11806  14.452   0.316   7.424
 4498W        W11807   5.809   0.629   9.630
 4499W        W11808  10.246   3.175   8.386
 4500W        W11809   3.426   8.498   8.868
 4501W        W11810   7.731   7.471   0.080
 4502W        W11811   3.822   2.734   9.280
 4503W        W11812   5.932   3.206   9.214
 4504W        W11813  15.271   9.961   0.322
 4505W        W11814   2.857   6.861   9.346
 4506W        W11815   2.004   1.064   6.707
 4507W        W11816   5.113   8.042   0.305
 4508W        W11817  10.385   6.917   9.866
 4509W        W11818   1.120   6.971   1.067
 4510W        W11819   7.260   3.134   7.499
 4511W        W11820   2.568   6.432   8.336
 4512W        W11821  16.845   0.039   0.237
 4513W        W11822   6.265   9.914   8.066
 4514W        W11823  19.864   4.594   7.717
 4515W        W11824   0.958   2.528   0.898
 4516W        W11825  18.600   0.330   9.688
 4517W        W11826   9.319   5.987   8.632
 4518W        W11827  18.351   4.930   8.283
 4519W        W11828  12.896   3.376   6.313
 4520W        W11829   6.539   0.172   9.298
 4521W        W11830   5.959   7.283   8.888
 4522W        W11831   9.881   1.178   8.402
 4523W        W11832   9.854   2.220   9.092
 4524W        W11833   4.521   6.630   1.113
 4525W        W11834   0.547   6.037   6.170
 4526W        W11835  16.446   6.490   8.771
 4527W        W11836  13.294   3.695   7.084
 4528W        W11837  11.445   8.468   0.274
 4529W        W11838  18.980   0.092   8.550
 4530W        W11839  14.959   4.951   1.154
 4531W        W11840   5.786   6.378   0.973
 4532W        W11841  11.479   3.587   8.288
 4533W        W11842  17.775   6.817   6.822
 4534W        W11843   8.835   0.857   7.636
 4535W        W11844   2.819   1.027   6.937
 4536W        W11845  19.216   3.345   8.684
 4537W        W11846  14.859   6.902   7.426
 4538W        W11847   8.163   8.763   8.910
 4539W        W11848  16.683   9.336   8.214
 4540W        W11849   3.449   7.682   9.177
 4541W        W11850   6.702   7.190   6.828
 4542W        W11851  17.708   5.233   9.629
 4543W        W11852  10.225   7.934   0.169
 4544W        W11853  11.446   4.277   6.716
 4545W        W11854  19.083   7.283   8.328
 4546W        W11855   4.505   0.576   7.844
 4547W        W11856   3.201   0.626   8.357
 4548W        W11857  13.637   2.254   7.402
 4549W        W11858  19.770   4.115   7.570
 4550W        W11859   9.472   7.473   8.978
 4551W        W11860  10.018   8.555   8.414
 4552W        W11861  12.223   7.018   0.264
 4553W        W11862  12.950   9.353   7.068
 4554W        W11863   5.334   8.031   6.538
 4555W        W11864   6.679   8.050   0.425
 4556W        W11865  17.006   5.465   6.528
 4557W        W11866   8.460   0.987   7.994
 4558W        W11867   2.999   5.438   0.194
 4559W        W11868   2.632   1.052   0.058
 4560W        W11869  16.109   5.605   8.491
 4561W        W11870  17.766   1.351   7.916
 4562W        W11871  10.721   2.697   7.818
 4563W        W11872   8.481   6.927   9.270
 4564W        W11873   7.966   6.002   6.004
 4565W        W11874   6.883   2.616   8.596
 4566W        W11875  19.856   3.156   6.122
 4567W        W11876  14.177   7.266   6.051
 4568W        W11877  13.487   3.624   9.604
 4569W        W11878  11.630   7.826   8.666
 4570W        W11879   9.951   6.010   0.005
 4571W        W11880   5.357   7.290   0.737
 4572W        W11881  16.626   3.142   8.131
 4573W        W11882  15.514   2.753   0.831
 4574W        W11883   9.147   8.505   6.115
 4575W        W11884   0.695   1.793   6.804
 4576W        W11885  12.947   0.704   6.796
 4577W        W11886  11.388   9.662   8.413
 4578W        W11887   5.800   1.803   0.975
 4579W        W11888  17.345   7.327   0.277
 4580W        W11889   8.127   2.298   6.027
 4581W        W11890   1.522   4.855   7.132
 4582W        W11891   2.304   1.612   7.343
 4583W        W11892  16.207   6.915   7.622
 4584W        W11893   0.690   0.461   1.155
 4585W        W11894   9.425   5.455   0.285
 4586W        W11895  15.987   6.156   6.514
 4587W        W11896   1.682   8.409   0.117
 4588W        W11897   9.804   2.157   9.595
 4589W        W11898   3.045   4.568   0.292
 4590W        W11899   2.263   4.604   7.082
 4591W        W11900  15.900   5.138   6.509
 4592W        W11901   0.712   1.325   6.013
 4593W        W11902   4.462   5.801   9.634
 4594W        W11903   9.463   0.046   7.572
 4595W        W11904   8.179   1.802   0.770
 4596W        W11905   1.553   0.910   6.959
 4597W        W11906   9.249   1.919   6.575
 4598W        W11907  17.041   9.241   6.582
 4599W        W11908  16.436   3.913   9.683
 4600W        W11909  14.992   4.022   8.953
 4601W        W11910  13.025   4.530   0.881
 4602W        W11911  11.658   2.075   8.792
 4603W        W11912  10.808   7.959   8.332
 4604W        W11913   0.816   8.052   9.355
 4605W        W11914  16.593   1.799   6.305
 4606W        W11915   3.786   5.070   0.423
 4607W        W11916  12.825   3.773   6.843
 4608W        W11917  13.317   5.628   8.782
 4609W        W11918  14.242   8.839   9.192
 4610W        W11919   0.102   0.739   8.059
 4611W        W11920   1.572   7.673   8.023
 4612W        W11921  11.332   2.675   6.723
 4613W        W11922   3.650   7.419   7.488
 4614W        W11923   9.952   0.930   9.539
 4615W        W11924   8.392   1.477   8.098
 4616W        W11925   3.400   5.931   6.804
 4617W        W11926   5.592   2.103   8.500
 4618W        W11927   9.325   9.265   9.356
 4619W        W11928  15.014   3.026   9.345
 4620W        W11929  16.363   8.212   0.840
 4621W        W11930   9.129   0.580   6.807
 4622W        W11931  10.604   2.868   8.834
 4623W        W11932   5.598   1.566   6.804
 4624W        W11933  16.803   6.217   8.517
 4625W        W11934  14.495   7.048   0.242
 4626W        W11935  11.421   4.683   7.058
 4627W        W11936   8.705   7.481   7.875
 4628W        W11937   3.188   1.094   7.553
 4629W        W11938  14.997   2.765   0.571
 4630W        W11939   3.743   5.061   8.107
 4631W        W11940  16.895   5.629   6.999
 4632W        W11941  11.637   7.839   7.372
 4633W        W11942   8.564   9.027   8.743
 4634W        W11943   8.946   4.559   0.328
 4635W        W11944   3.526   4.541   9.389
 4636W        W11945   1.500   0.307   8.798
 4637W        W11946  17.448   8.302   7.955
 4638W        W11947   5.492   9.397   7.558
 4639W        W11948   6.518   4.477   7.058
 4640W        W11949   8.067   4.970   7.770
 4641W        W11950   6.265   8.839   9.011
 4642W        W11951   7.260   6.707   0.401
 4643W        W11952   5.423   1.120   6.589
 4644W        W11953   0.608   1.589   7.967
 4645W        W11954  10.927   1.658   8.730
 4646W        W11955  17.877   0.167   7.194
 4647W        W11956  14.518   5.194   8.726
 4648W        W11957   6.702   9.182   9.270
 4649W        W11958   6.670   3.988   0.728
 4650W        W11959   4.919   3.697   7.387
 4651W        W11960  14.356   5.662   8.754
 4652W        W11961  12.445   0.830   6.290
 4653W        W11962   6.508   2.165   0.674
 4654W        W11963  17.980   5.507   6.454
 4655W        W11964  17.911   1.732   0.266
 4656W        W11965   1.849   7.058   6.521
 4657W        W11966   8.524   4.441   8.435
 4658W        W11967  15.768   6.932   8.455
 4659W        W11968  10.218   5.142   6.706
 4660W        W11969   5.977   1.140   8.351
 4661W        W11970   4.758   4.955   8.215
 4662W        W11971  14.868   4.637   9.714
 4663W        W11972  15.228   4.496   0.463
 4664W        W11973  11.382   4.862   9.490
 4665W        W11974   8.593   8.725   7.865
 4666W        W11975   4.045   5.082   8.774
 4667W        W11976   9.849   9.293   0.189
 4668W        W11977  11.841   5.445   6.016
 4669W        W11978   9.161   3.628   8.571
 4670W        W11979  10.696   2.032   6.290
 4671W        W11980   6.615   6.116   9.493
 4672W        W11981   7.219   5.073   6.187
 4673W        W11982  13.792   2.577   9.916
 4674W        W11983   3.404   6.800   9.393
 4675W        W11984   5.576   3.843   9.971
 4676W        W11985  13.067   4.177   7.086
 4677W        W11986  15.134   0.428   8.463
 4678W        W11987  12.482   6.022   7.767
 4679W        W11988  12.862   9.531   9.038
 4680W        W11989   9.683   6.399   9.792
 4681W        W11990  13.349   5.349   0.447
 4682W        W11991   4.885   3.458   0.280
 4683W        W11992   1.601   5.389   8.444
 4684W        W11993  16.899   6.792   9.964
 4685W        W11994   8.578   7.534   8.439
 4686W        W11995  16.402   1.883   0.797
 4687W        W11996   9.782   1.371   9.711
 4688W        W11997  13.085   8.152   6.879
 4689W        W11998  10.185   9.373   8.437
 4690W        W11999   4.272   9.654   7.361
 4691W        W12000  12.928   3.219   0.667
 4692W        W12001  15.672   0.337   8.387
 4693W        W12002   8.693   4.630   9.742
 4694W        W12003   9.484   7.287   8.501
 4695W        W12004   1.854   7.538   8.889
 4696W        W12005  15.940   4.232   9.950
 4697W        W12006   4.862   6.270   9.265
 4698W        W12007  11.074   3.663   7.982
 4699W        W12008   3.055   0.091   0.751
 4700W        W12009   9.422   5.067   6.103
 4701W        W12010  19.225   1.721   7.467
 4702W        W12011   9.678   7.911   9.130
 4703W        W12012  17.905   0.819   9.188
 4704W        W12013  12.397   0.178   6.199
 4705W        W12014  18.714   4.991   6.522
 4706W        W12015  12.480   3.101   9.922
 4707W        W12016  13.029   3.607   8.868
 4708W        W12017  13.903   3.666   8.262
 4709W        W12018  18.221   2.134   9.752
 4710W        W12019  12.861   7.365   9.901
 4711W        W12020   8.085   5.222   0.586
 4712W        W12021  18.645   5.335   9.189
 4713W        W12022  14.982   9.185   0.844
 4714W        W12023  17.770   7.999   0.394
 4715W        W12024  17.663   3.474   9.396
 4716W        W12025  14.192   3.361   7.414
 4717W        W12026  17.358   2.150   9.215
 4718W        W12027  15.854   3.197   6.900
 4719W        W12028  17.388   9.952   9.382
 4720W        W12029   3.074   8.851   5.973
 4721W        W12030   9.698   8.152   8.286
 4722W        W12031  12.014   8.308   8.125
 4723W        W12032   9.100   3.246   8.898
 4724W        W12033   2.717   3.747   8.773
 4725W        W12034   0.837   2.078   0.658
 4726W        W12035   7.021   9.822   9.847
 4727W        W12036   2.770   4.566   7.223
 4728W        W12037   0.522   1.750   9.424
 4729W        W12038   1.051   2.404   8.868
 4730W        W12039  17.383   1.639   7.372
 4731W        W12040  10.889   5.926   9.374
 4732W        W12041   1.752   3.934   8.239
 4733W        W12042   9.516   6.817   0.436
 4734W        W12043  17.950   8.848   0.460
 4735W        W12044  17.144   6.845   9.112
 4736W        W12045   1.044   6.473   0.208
 4737W        W12046  11.207   4.883   9.986
 4738W        W12047  16.514   0.112   7.715
 4739W        W12048  11.050   8.379   8.532
 4740W        W12049   0.735   3.632   9.214
 4741W        W12050  19.107   3.940   9.704
 4742W        W12051  17.359   1.694   8.971
 4743W        W12052   2.255   6.547   9.740
 4744W        W12053  10.977   4.041   7.654
 4745W        W12054  14.962   0.187   7.234
 4746W        W12055  16.051   8.330   6.623
 4747W        W12056  19.388   2.588   6.684
 4748W        W12057   1.378   7.939   0.207
 4749W        W12058  19.779   9.485   0.717
 4750W        W12059   2.425   9.913   9.523
 4751W        W12060   2.157   3.296   9.413
 4752W        W12061   8.051   6.576   0.378
 4753W        W12062  14.554   7.100   8.677
 4754W        W12063  14.038   0.714   9.510
 4755W        W12064   0.870   8.542   8.854
 4756W        W12065  16.854   9.081   0.595
 4757W        W12066   7.496   8.369   0.930
 4758W        W12067   1.869   6.963   7.595
 4759W        W12068  15.512   3.827   0.982
 4760W        W12069  11.790   7.363   0.865
 4761W        W12070   0.385   2.721   6.054
 4762W        W12071  15.423   3.173   6.616
 4763W        W12072   2.743   7.415   7.959
 4764W        W12073  10.811   4.998   0.361
 4765W        W12074   9.480   0.466   8.910
 4766W        W12075  19.681   2.650   8.645
 4767W        W12076   3.183   7.898   8.791
 4768W        W12077   9.729   7.917   0.273
 4769W        W12078   5.261   9.737   7.210
 4770W        W12079   6.452   5.405   6.107
 4771W        W12080   7.233   1.731   0.395
 4772W        W12081  15.105   4.469   8.237
 4773W        W12082   4.622   0.097   9.049
 4774W        W12083  18.843   1.662   6.639
 4775W        W12084  16.757   1.293   6.259
 4776W        W12085   8.228   4.031   7.559
 4777W        W12086   0.605   7.421   6.393
 4778W        W12087  17.668   9.000   0.024
 4779W        W12088  19.801   7.870   0.805
 4780W        W12089   4.243   1.817   6.807
 4781W        W12090   5.393   5.283   7.371
 4782W        W12091   6.888   5.332   7.061
 4783W        W12092   5.585   2.577   7.219
 4784W        W12093  11.821   4.131   6.364
 4785W        W12094  15.129   8.701   0.764
 4786W        W12095   8.018   6.987   7.892
 4787W        W12096   0.729   5.816   7.413
 4788W        W12097   3.574   3.644   8.311
 4789W        W12098   9.051   0.759   9.653
 4790W        W12099  13.058   9.827   7.350
 4791W        W12100  13.549   7.151   0.155
 4792W        W12101  18.322   7.546   9.376
 4793W        W12102  10.862   4.137   8.206
 4794W        W12103  13.141   1.142   7.213
 4795W        W12104  19.896   1.311   6.457
 4796W        W12105  14.871   5.664   8.741
 4797W        W12106  14.302   9.825   9.723
 4798W        W12107  13.853   4.505   7.100
 4799W        W12108   3.905   2.883   0.734
 4800W        W12109   0.183   0.689   8.552
 4801W        W12110  11.982   9.541   8.543
 4802W        W12111   9.795   9.588   9.756
 4803W        W12112   0.388   6.231   7.495
 4804W        W12113   7.734   3.629   8.829
 4805W        W12114  11.925   6.359   9.292
 4806W        W12115  19.381   5.901   0.352
 4807W        W12116   5.718   5.994   6.537
 4808W        W12117  17.940   8.237   8.958
 4809W        W12118   2.451   8.414   9.684
 4810W        W12119   6.111   2.775   7.986
 4811W        W12120   4.621   9.386   5.712
 4812W        W12121  16.046   7.370   9.655
 4813W        W12122   2.421   2.203   8.492
 4814W        W12123  16.951   2.021   7.891
 4815W        W12124  11.547   3.332   9.110
 4816W        W12125  19.401   3.880   6.693
 4817W        W12126   5.804   9.084   9.006
 4818W        W12127   9.407   0.247   6.072
 4819W        W12128   5.078   6.523   0.416
 4820W        W12129   1.153   1.198   6.322
 4821W        W12130  16.844   9.396   6.147
 4822W        W12131   5.980   4.973   7.956
 4823W        W12132  18.604   8.929   7.820
 4824W        W12133  19.540   5.995   5.923
 4825W        W12134   3.286   4.530   9.831
 4826W        W12135   3.272   9.683   0.993
 4827W        W12136   6.982   3.439   8.301
 4828W        W12137   7.496   9.285   6.361
 4829W        W12138   8.535   8.380   6.772
 4830W        W12139  18.722   5.865   7.376
 4831W        W12140   9.039   7.388   8.248
 4832W        W12141  11.076   2.830   8.575
 4833W        W12142   0.575   3.144   9.288
 4834W        W12143   2.256   5.900   9.982
 4835W        W12144   3.980   0.136   7.466
 4836W        W12145  19.109   5.758   6.136
 4837W        W12146  17.438   4.438   8.415
 4838W        W12147   2.799   8.759   0.140
 4839W        W12148   8.973   7.742   9.625
 4840W        W12149  12.477   8.285   8.890
 4841W        W12150  18.848   6.077   9.647
 4842W        W12151  16.923   1.256   1.012
 4843W        W12152  10.747   6.574   9.991
 4844W        W12153  12.249   8.804   0.413
 4845W        W12154   2.389   0.246   9.120
 4846W        W12155  14.129   1.135   0.244
 4847W        W12156  18.611   9.370   0.337
 4848W        W12157   1.545   3.125   0.401
 4849W        W12158  14.311   9.765   0.234
 4850W        W12159  14.321   4.633   6.993
 4851W        W12160   4.894   5.129   6.540
 4852W        W12161  12.815   4.953   0.580
 4853W        W12162  13.151   1.726   7.998
 4854W        W12163   7.543   6.984   0.068
 4855W        W12164  13.705   2.005   0.698
 4856W        W12165   6.005   3.570   9.832
 4857W        W12166   4.818   5.477   9.867
 4858W        W12167   3.507   6.368   6.232
 4859W        W12168   2.768   1.851   7.449
 4860W        W12169   7.652   2.493   6.196
 4861W        W12170  15.898   5.315   7.897
 4862W        W12171  19.877   7.671   7.782
 4863W        W12172  11.803   2.103   9.268
 4864W        W12173   2.795   1.217   7.873
 4865W        W12174  19.154   9.143   0.408
 4866W        W12175  10.261   8.212   8.950
 4867W        W12176   8.392   0.615   0.370
 4868W        W12177   0.715   1.976   8.938
 4869W        W12178  18.388   0.213   7.271
 4870W        W12179   0.866   4.927   0.659
 4871W        W12180   3.702   8.016   8.801
 4872W        W12181  18.746   2.653   0.269
 4873W        W12182   9.226   9.516   7.906
 4874W        W12183   7.281   7.544   8.346
 4875W        W12184  10.925   2.007   7.039
 4876W        W12185   2.831   3.281   8.048
 4877W        W12186  19.954   5.887   6.747
 4878W        W12187   4.262   5.526   0.774
 4879W        W12188  19.161   8.062   6.818
 4880W        W12189  16.507   5.940   9.978
 4881W        W12190   9.505   6.757   6.426
 4882W        W12191  16.551   5.032   0.009
 4883W        W12192   9.973   4.904   7.689
 4884W        W12193   7.834   9.601   6.671
 4885W        W12194   8.793   3.035   9.249
 4886W        W12195  19.137   6.038   8.821
 4887W        W12196  18.550   4.673   7.868
 4888W        W12197   3.283   8.958   9.392
 4889W        W12198  16.307   4.446   6.309
 4890W        W12199   8.477   9.151   6.176
 4891W        W12200  15.704   8.278   7.442
 4892W        W12201  13.607   2.084   0.040
 4893W        W12202   7.072   7.059   7.687
 4894W        W12203  13.034   6.054   9.798
 4895W        W12204  17.775   1.287   0.019
 4896W        W12205  10.036   4.560   9.370
 4897W        W12206  18.291   2.655   0.524
 4898W        W12207   0.985   7.042   7.480
 4899W        W12208  15.233   6.647   7.729
 4900W        W12209  11.419   5.077   6.656
 4901W        W12210  11.838   6.934   0.583
 4902W        W12211  10.996   1.676   9.237
 4903W        W12212  18.407   1.879   0.968
 4904W        W12213   4.695   2.575   7.323
 4905W        W12214  11.956   2.380   8.476
 4906W        W12215  13.588   7.273   9.313
 4907W        W12216   1.481   2.096   9.375
 4908W        W12217   0.121   6.317   8.557
 4909W        W12218  16.180   1.861   6.620
 4910W        W12219  17.298   5.970   7.049
 4911W        W12220  16.293   5.608   8.965
 4912W        W12221  10.627   9.174   9.742
 4913W        W12222   2.973   3.066   9.321
 4914W        W12223  10.563   6.589   9.509
 4915W        W12224   4.860   5.534   0.794
 4916W        W12225   4.386   3.929   0.871
 4917W        W12226   3.801   4.593   9.826
 4918W        W12227   7.817   5.372   7.632
 4919W        W12228  15.201   9.131   7.322
 4920W        W12229   7.254   9.806   8.432
 4921W        W12230   6.972   7.546   7.543
 4922W        W12231  12.551   6.378   0.909
 4923W        W12232   4.571   9.137   0.548
 4924W        W12233  13.525   5.522   8.315
 4925W        W12234   9.227   3.568   7.717
 4926W        W12235  16.267   3.987   8.682
 4927W        W12236   8.941   5.087   9.748
 4928W        W12237   1.832   6.487   7.273
 4929W        W12238   8.822   8.839   8.354
 4930W        W12239  11.481   3.087   8.387
 4931W        W12240  10.093   1.760   9.724
 4932W        W12241  19.124   6.005   6.594
 4933W        W12242   0.815   2.634   8.466
 4934W        W12243   6.197   5.456   8.028
 4935W        W12244  16.317   8.944   6.335
 4936W        W12245  18.343   6.394   0.866
 4937W        W12246  16.632   8.119   8.665
 4938W        W12247  16.134   0.985   0.704
 4939W        W12248   5.375   8.862   8.789
 4940W        W12249  10.733   5.558   9.692
 4941W        W12250  16.829   7.298   9.183
 4942W        W12251   1.184   2.657   6.366
 4943W        W12252   5.032   9.427   6.391
 4944W        W12253  14.541   9.396   9.954
 4945W        W12254  11.642   9.048   7.099
 4946W        W12255   1.309   6.097   9.999
 4947W        W12256  15.171   5.437   9.114
 4948W        W12257  19.925   7.792   0.288
 4949W        W12258  11.462   6.574   9.294
 4950W        W12259  16.370   5.337   8.136
 4951W        W12260  15.542   1.828   6.704
 4952W        W12261   6.738   4.506   0.668
 4953W        W12262   8.904   4.772   6.812
 4954W        W12263   2.537   2.080   9.332
 4955W        W12264   1.966   7.785   7.205
 4956W        W12265  14.483   2.102   0.026
 4957W        W12266  14.116   6.059   7.877
 4958W        W12267  11.127   3.976   9.509
 4959W        W12268   7.246   2.804   6.296
 4960W        W12269  16.232   1.745   7.457
 4961W        W12270   8.212   2.685   0.046
 4962W        W12271  17.238   0.647   5.905
 4963W        W12272   6.770   3.538   7.817
 4964W        W12273   6.282   8.362   8.766
 4965W        W12274   2.717   0.542   0.075
 4966W        W12275  14.307   6.639   0.621
 4967W        W12276  11.718   2.027   0.091
 4968W        W12277  18.544   2.373   1.070
 4969W        W12278  14.297   4.491   7.891
 4970W        W12279   8.841   9.566   6.641
 4971W        W12280  17.882   6.064   9.897
 4972W        W12281   8.610   7.070   8.201
 4973W        W12282  11.468   3.746   8.790
 4974W        W12283   2.214   9.665   8.471
 4975W        W12284   3.255   4.991   8.352
 4976W        W12285   7.092   3.825   0.964
 4977W        W12286   2.631   7.292   8.446
 4978W        W12287   9.020   2.277   6.230
 4979W        W12288  16.942   8.931   8.496
 4980W        W12289  18.724   3.149   7.911
 4981W        W12290  10.654   4.040   8.687
 4982W        W12291   1.635   8.297   8.430
 4983W        W12292   3.132   2.220   0.120
 4984W        W12293   4.859   6.718   6.190
 4985W        W12294  13.893   0.976   6.000
 4986W        W12295  11.425   5.558   6.837
 4987W        W12296   8.967   0.365   6.332
 4988W        W12297   3.615   7.112   6.602
 4989W        W12298  14.286   0.741   6.242
 4990W        W12299  10.413   0.227   8.069
 4991W        W12300  11.252   1.815   6.658
 4992W        W12301   9.809   4.584   7.276
 4993W        W12302  17.361   8.120   6.579
 4994W        W12303  10.018   2.122   0.087
 4995W        W12304   1.509   2.226   7.133
 4996W        W12305  15.401   2.600   8.506
 4997W        W12306   0.850   8.909   0.585
 4998W        W12307  18.745   7.902   6.257
 4999W        W12308  11.016   2.520   8.978
 5000W        W12309   0.146   4.910   0.667
 5001W        W12310  13.647   5.375   7.183
 5002W        W12311   5.588   0.596   9.173
 5003W        W12312   5.506   5.864   0.857
 5004W        W12313  15.899   3.533   8.688
 5005W        W12314  14.472   1.269   9.446
 5006W        W12315  15.564   2.097   8.531
 5007W        W12316  11.268   2.040   7.437
 5008W        W12317  19.449   7.252   7.408
 5009W        W12318  19.980   8.922   7.360
 5010W        W12319  14.336   9.499   6.842
 5011W        W12320   8.261   2.334   9.607
 5012W        W12321   9.566   1.991   7.061
 5013W        W12322   7.851   6.732   8.831
 5014W        W12323  19.972   6.426   9.118
 5015W        W12324  10.520   9.376   6.919
 5016W        W12325   1.568   2.770   8.887
 5017W        W12326   8.577   0.534   8.874
 5018W        W12327  10.684   6.897   7.149
 5019W        W12328   0.350   9.698   6.162
 5020W        W12329   0.229   5.887   8.292
 5021W        W12330   5.493   0.145   7.399
 5022W        W12331   7.871   5.881   9.712
 5023W        W12332  15.632   5.050   0.580
 5024W        W12333  14.291   0.573   0.832
 5025W        W12334   8.027   8.283   6.959
 5026W        W12335  11.546   8.803   6.101
 5027W        W12336  15.933   3.588   8.186
 5028W        W12337  16.868   5.011   6.365
 5029W        W12338   4.289   1.556   7.417
 5030W        W12339  18.913   0.436   6.283
 5031W        W12340   1.024   5.666   9.830
 5032W        W12341   8.286   7.379   9.890
 5033W        W12342  14.839   7.516   8.789
 5034W        W12343  10.660   2.848   8.303
 5035W        W12344  14.963   2.723   9.749
 5036W        W12345  14.809   2.862   6.576
 5037W        W12346   9.567   3.180   7.653
 5038W        W12347   3.261   4.593   7.056
 5039W        W12348  14.747   9.726   9.004
 5040W        W12349   8.501   4.952   7.065
 5041W        W12350  11.737   6.440   0.795
 5042W        W12351  19.890   2.533   6.775
 5043W        W12352   5.953   2.336   9.203
 5044W        W12353   3.262   5.910   0.274
 5045W        W12354  11.945   1.616   8.823
 5046W        W12355  16.310   4.630   9.073
 5047W        W12356   2.324   4.120   9.993
 5048W        W12357   3.480   1.512   7.879
 5049W        W12358   4.378   8.768   9.025
 5050W        W12359   9.727   5.934   8.307
 5051W        W12360  13.580   5.856   7.003
 5052W        W12361  13.489   6.662   0.138
 5053W        W12362   5.626   6.010   9.042
 5054W        W12363  17.871   9.131   8.485
 5055W        W12364   7.012   4.235   8.863
 5056W        W12365   3.191   7.306   8.270
 5057W        W12366   1.988   5.683   0.668
 5058W        W12367  12.707   4.416   1.305
 5059W        W12368  16.929   1.606   8.701
 5060W        W12369   8.700   8.928   0.186
 5061W        W12370   6.642   3.027   8.363
 5062W        W12371  16.767   3.114   6.952
 5063W        W12372  18.874   9.241   7.468
 5064W        W12373   9.099   6.415   9.330
 5065W        W12374  14.903   8.541   9.495
 5066W        W12375  12.648   2.313   8.891
 5067W        W12376  14.502   7.675   6.658
 5068W        W12377   9.102   0.108   8.970
 5069W        W12378   1.815   1.848   7.344
 5070W        W12379   3.422   5.041   6.397
 5071W        W12380   9.414   4.836   0.634
 5072W        W12381   2.393   7.800   9.279
 5073W        W12382   4.687   9.762   7.657
 5074W        W12383  19.821   6.852   9.354
 5075W        W12384   7.491   8.783   0.605
 5076W        W12385   3.246   5.778   6.322
 5077W        W12386  18.887   4.931   0.023
 5078W        W12387  10.032   2.896   7.278
 5079W        W12388   5.932   0.300   8.122
 5080W        W12389   9.134   5.895   0.359
 5081W        W12390  10.934   8.730   9.782
 5082W        W12391  10.060   1.831   8.795
 5083W        W12392  15.849   7.826   8.248
 5084W        W12393  17.560   0.383   8.696
 5085W        W12394  18.060   3.521   0.224
 5086W        W12395  15.834   0.742   7.337
 5087W        W12396  16.722   9.673   9.799
 5088W        W12397  13.575   7.900   9.714
 5089W        W12398   8.625   2.561   0.867
 5090W        W12399   2.798   9.660   0.621
 5091W        W12400   0.432   3.390   8.506
 5092W        W12401  14.468   6.298   6.195
 5093W        W12402   5.965   2.839   8.489
 5094W        W12403   0.890   6.164   9.712
 5095W        W12404  15.364   4.225   8.644
 5096W        W12405  15.954   9.444   0.456
 5097W        W12406   0.277   1.154   7.832
 5098W        W12407  12.419   7.997   9.301
 5099W        W12408   7.643   9.216   0.919
 5100W        W12409  19.183   8.279   0.285
 5101W        W12410   3.662   7.002   9.802
 5102W        W12411   7.494   7.911   9.976
 5103W        W12412   6.468   5.052   7.806
 5104W        W12413   5.220   3.154   8.309
 5105W        W12414  14.387   8.009   0.601
 5106W        W12415   8.028   2.649   7.474
 5107W        W12416  16.809   7.834   0.346
 5108W        W12417  10.034   1.634   0.229
 5109W        W12418  10.781   2.543   6.231
 5110W        W12419   6.680   7.867   8.062
 5111W        W12420   1.742   5.065   6.263
 5112W        W12421  12.054   8.577   8.810
 5113W        W12422   8.079   7.007   7.384
 5114W        W12423   6.903   4.504   7.394
 5115W        W12424   7.857   7.172   9.685
 5116W        W12425  15.004   1.795   8.045
 5117W        W12426  13.041   7.682   7.625
 5118W        W12427  11.967   3.339   7.669
 5119W        W12428   6.091   4.654   6.271
 5120W        W12429   2.746   9.712   7.406
 5121W        W12430   0.484   5.607   0.252
 5122W        W12431  14.219   4.523   5.844
 5123W        W12432   8.083   0.864   0.023
 5124W        W12433   6.364   4.167   6.252
 5125W        W12434  19.406   3.538   9.614
 5126W        W12435   0.760   3.040   7.541
 5127W        W12436  10.953   5.613   6.594
 5128W        W12437   0.436   3.623   8.050
 5129W        W12438   5.032   4.377   8.697
 5130W        W12439  14.546   5.537   6.640
 5131W        W12440   5.982   5.563   0.270
 5132W        W12441  10.993   9.368   7.206
 5133W        W12442  15.346   4.744   0.883
 5134W        W12443  16.740   3.672   6.229
 5135W        W12444   1.267   4.554   0.044
 5136W        W12445  19.161   8.259   8.321
 5137W        W12446  16.377   1.112   6.589
 5138W        W12447  16.300   3.122   7.182
 5139W        W12448   4.127   4.646   8.020
 5140W        W12449   1.737   9.837   6.498
 5141W        W12450   8.881   6.824   9.671
 5142W        W12451   4.180   8.675   0.361
 5143W        W12452  17.279   4.753   7.479
 5144W        W12453   0.084   1.511   9.654
 5145W        W12454   9.347   1.065   6.869
 5146W        W12455   9.935   6.975   0.172
 5147W        W12456   8.907   1.719   6.212
 5148W        W12457  15.337   5.461   0.453
 5149W        W12458   9.149   5.911   9.476
 5150W        W12459  11.665   4.110   9.842
 5151W        W12460   9.258   9.546   9.783
 5152W        W12461  15.099   3.709   6.572
 5153W        W12462   0.410   3.658   0.972
 5154W        W12463  16.707   8.103   9.565
 5155W        W12464  15.536   9.567   0.075
 5156W        W12465   1.930   8.456   9.670
 5157W        W12466   4.071   9.178   0.331
 5158W        W12467  19.316   9.105   9.930
 5159W        W12468   6.791   8.057   0.921
 5160W        W12469   5.775   0.463   7.653
 5161W        W12470   0.118   5.030   7.742
 5162W        W12471  12.516   1.183   0.828
 5163W        W12472  15.698   1.433   7.043
 5164W        W12473   7.383   4.058   9.672
 5165W        W12474  18.180   0.411   0.370
 5166W        W12475  14.063   6.870   0.014
 5167W        W12476   7.069   2.598   0.079
 5168W        W12477  13.891   5.565   9.648
 5169W        W12478  16.226   9.417   8.886
 5170W        W12479   9.704   8.500   6.208
 5171W        W12480  11.221   5.344   9.615
 5172W        W12481   8.367   9.688   0.773
 5173W        W12482   2.260   1.106   0.873
 5174W        W12483   7.746   8.300   7.834
 5175W        W12484   3.296   9.881   9.454
 5176W        W12485  16.388   3.546   7.940
 5177W        W12486  18.881   1.317   7.970
 5178W        W12487   1.136   7.181   0.033
 5179W        W12488   3.529   8.390   7.466
 5180W        W12489   1.911   2.748   7.339
 5181W        W12490   1.674   8.584   7.953
 5182W        W12491  11.116   7.923   8.792
 5183W        W12492   5.289   6.987   0.323
 5184W        W12493  12.611   6.677   0.254
 5185W        W12494   6.456   6.347   7.163
 5186W        W12495  13.383   4.429   7.570
 5187W        W12496   3.270   6.597   0.650
 5188W        W12497   0.804   0.847   9.291
 5189W        W12498   8.241   9.444   7.412
 5190W        W12499  16.931   0.816   6.256
 5191W        W12500  13.895   6.438   0.327
 5192W        W12501  18.862   1.733   6.133
 5193W        W12502   2.507   5.877   7.168
 5194W        W12503   3.325   9.720   7.447
 5195W        W12504  17.196   4.511   6.567
 5196W        W12505  19.466   9.880   6.684
 5197W        W12506  17.211   4.542   1.124
 5198W        W12507   6.008   9.490   8.768
 5199W        W12508   3.789   0.986   0.126
 5200W        W12509  12.736   3.017   8.653
 5201W        W12510  19.448   0.162   8.313
 5202W        W12511  12.548   1.119   7.825
 5203W        W12512   8.721   4.944   9.300
 5204W        W12513  15.629   8.809   7.399
 5205W        W12514  15.363   8.821   6.671
 5206W        W12515   5.415   3.603   9.102
 5207W        W12516   3.356   4.145   9.124
 5208W        W12517   1.855   7.559   9.745
 5209W        W12518  15.388   1.911   7.748
 5210W        W12519  10.099   1.280   8.859
 5211W        W12520   2.144   8.239   8.411
 5212W        W12521   7.139   7.919   7.847
 5213W        W12522  16.763   4.011   7.405
 5214W        W12523   6.201   0.874   6.981
 5215W        W12524  14.670   2.436   7.483
 5216W        W12525  14.962   7.018   8.966
 5217W        W12526   7.543   5.970   1.013
 5218W        W12527   9.584   3.795   9.998
 5219W        W12528  12.184   6.550   0.558
 5220W        W12529  16.530   9.350   6.569
 5221W        W12530   7.111   5.462   9.867
 5222W        W12531   5.819   2.559   0.632
 5223W        W12532  17.653   0.256   6.753
 5224W        W12533  12.230   2.088   7.478
 5225W        W12534   9.561   9.098   0.617
 5226W        W12535   8.789   1.713   8.315
 5227W        W12536  14.601   5.094   0.254
 5228W        W12537   9.377   8.073   6.944
 5229W        W12538  10.165   3.495   6.603
 5230W        W12539   1.003   0.274   9.695
 5231W        W12540   9.704   5.945   9.532
 5232W        W12541  15.989   7.056   6.718
 5233W        W12542  10.150   8.853   0.191
 5234W        W12543   1.084   0.771   8.447
 5235W        W12544  18.852   7.691   7.248
 5236W        W12545   3.368   5.428   8.088
 5237W        W12546   3.942   3.072   8.844
 5238W        W12547   2.157   0.118   6.713
 5239W        W12548  10.502   6.202   9.167
 5240W        W12549  13.704   3.540   1.109
 5241W        W12550   1.640   8.380   6.768
 5242W        W12551  11.225   2.775   9.905
 5243W        W12552   5.233   5.193   9.926
 5244W        W12553   3.170   3.594   0.012
 5245W        W12554  12.087   5.895   6.814
 5246W        W12555  14.518   2.932   9.388
 5247W        W12556  16.294   3.276   0.749
 5248W        W12557   9.234   5.990   7.193
 5249W        W12558  15.047   5.080   9.960
 5250W        W12559  13.382   9.639   9.200
 5251W        W12560  12.690   1.856   7.353
 5252W        W12561   3.940   5.935   9.512
 5253W        W12562  16.154   4.326   9.488
 5254W        W12563  18.839   3.078   9.986
 5255W        W12564  15.972   1.242   8.415
 5256W        W12565  10.526   4.258   6.834
 5257W        W12566  12.955   0.895   9.872
 5258W        W12567   1.812   7.202   8.057
 5259W        W12568  12.318   7.879   8.162
 5260W        W12569   6.257   7.381   7.029
 5261W        W12570  16.464   5.658   7.706
 5262W        W12571  11.026   3.731   8.499
 5263W        W12572  14.629   4.540   7.447
 5264W        W12573  11.796   4.119   8.936
 5265W        W12574  15.792   9.806   7.270
 5266W        W12575   4.966   5.312   8.537
 5267W        W12576  15.639   0.931   6.570
 5268W        W12577   2.773   9.113   9.271
 5269W        W12578   0.867   2.575   9.682
 5270W        W12579   8.009   9.947   0.462
 5271W        W12580  13.109   0.831   8.853
 5272W        W12581  13.458   4.212   6.750
 5273W        W12582   7.250   0.747   9.371
 5274W        W12583   4.736   3.266   0.777
 5275W        W12584  14.443   9.884   7.144
 5276W        W12585   6.621   8.744   0.581
 5277W        W12586  17.301   7.810   0.449
 5278W        W12587   3.149   9.127   1.258
 5279W        W12588  19.128   8.268   0.801
 5280W        W12589  17.679   6.887   9.242
 5281W        W12590   1.758   4.436   6.951
 5282W        W12591  17.316   1.223   7.675
 5283W        W12592  18.874   5.862   0.136
 5284W        W12593   1.587   9.199   7.131
 5285W        W12594   9.337   8.630   0.642
 5286W        W12595   6.020   4.465   7.268
 5287W        W12596   8.087   0.120   8.228
 5288W        W12597   1.202   7.087   0.527
 5289W        W12598  14.958   3.275   6.822
 5290W        W12599  15.608   0.747   0.174
 5291W        W12600   0.732   3.403   0.204
 5292W        W12601   8.874   2.191   0.241
 5293W        W12602   2.988   4.436   9.386
 5294W        W12603   4.254   9.491   8.504
 5295W        W12604  10.938   5.165   5.764
 5296W        W12605  10.114   9.158   9.768
 5297W        W12606   3.125   9.315   5.717
 5298W        W12607   6.719   1.431   7.355
 5299W        W12608  19.229   2.832   8.771
 5300W        W12609   9.643   0.526   7.436
 5301W        W12610   5.494   4.521   9.444
 5302W        W12611   8.685   3.663   7.707
 5303W        W12612   8.885   6.738   7.470
 5304W        W12613   0.861   9.603   8.054
 5305W        W12614  17.096   9.953   0.681
 5306W        W12615  14.306   6.411   0.029
 5307W        W12616   8.455   9.908   7.428
 5308W        W12617   3.976   5.964   0.866
 5309W        W12618  10.468   0.924   9.647
 5310W        W12619   4.996   7.476   8.984
 5311W        W12620   4.150   2.029   6.313
 5312W        W12621  12.296   5.724   8.966
 5313W        W12622  11.268   5.170   7.147
 5314W        W12623  17.872   8.071   8.161
 5315W        W12624  11.595   8.324   8.473
 5316W        W12625  12.262   4.267   8.696
 5317W        W12626  15.817   6.456   9.865
 5318W        W12627   9.039   6.781   6.694
 5319W        W12628   6.034   5.342   9.326
 5320W        W12629   7.158   4.920   7.226
 5321W        W12630   6.680   3.396   8.746
 5322W        W12631   1.288   5.258   6.460
 5323W        W12632  16.756   5.005   8.009
 5324W        W12633  17.358   5.760   0.556
 5325W        W12634   5.366   5.025   6.348
 5326W        W12635  18.118   7.184   8.029
 5327W        W12636  15.530   6.877   6.784
 5328W        W12637  11.708   3.652   0.079
 5329W        W12638  11.645   5.287   9.329
 5330W        W12639   3.687   1.050   7.796
 5331W        W12640  19.658   8.063   6.969
 5332W        W12641   7.924   1.717   7.361
 5333W        W12642   3.497   4.103   7.023
 5334W        W12643  11.551   6.494   9.810
 5335W        W12644  16.242   9.786   6.460
 5336W        W12645   8.649   5.502   9.775
 5337W        W12646   0.615   0.854   7.319
 5338W        W12647   4.949   1.841   6.310
 5339W        W12648   1.561   4.127   8.690
 5340W        W12649   1.915   1.726   0.196
 5341W        W12650   3.313   7.197   1.043
 5342W        W12651   4.692   7.478   7.350
 5343W        W12652   7.333   4.523   7.666
 5344W        W12653  19.397   7.783   9.313
 5345W        W12654   6.986   2.104   9.905
 5346W        W12655   3.766   9.029   6.699
 5347W        W12656   6.245   9.811   7.544
 5348W        W12657   7.751   2.634   0.283
 5349W        W12658   6.174   9.340   9.280
 5350W        W12659   2.616   8.260   0.305
 5351W        W12660   1.016   3.046   9.541
 5352W        W12661   4.998   2.925   9.047
 5353W        W12662  10.184   3.833   7.507
 5354W        W12663   2.429   4.120   8.978
 5355W        W12664   4.403   2.905   0.787
 5356W        W12665   6.163   4.846   6.939
 5357W        W12666  11.622   2.891   0.480
 5358W        W12667   1.909   1.016   7.311
 5359W        W12668   4.366   6.114   9.264
 5360W        W12669   4.988   6.912   0.741
 5361W        W12670  11.470   6.400   6.704
 5362W        W12671  15.123   3.047   8.560
 5363W        W12672   5.054   5.969   0.591
 5364W        W12673  10.746   3.275   9.148
 5365W        W12674   5.928   3.930   6.013
 5366W        W12675  19.879   6.152   1.069
 5367W        W12676   7.230   0.303   8.281
 5368W        W12677   4.316   0.756   9.435
 5369W        W12678   8.657   7.783   9.090
 5370W        W12679  19.067   8.724   9.644
 5371W        W12680   8.408   9.770   8.449
 5372W        W12681   5.311   8.585   7.921
 5373W        W12682  15.063   0.105   0.798
 5374W        W12683   4.596   2.184   7.999
 5375W        W12684  15.419   1.267   8.439
 5376W        W12685  14.591   9.704   6.153
 5377W        W12686  12.629   8.942   6.532
 5378W        W12687   9.288   8.774   7.058
 5379W        W12688  16.597   5.204   0.933
 5380W        W12689  12.950   1.273   8.083
 5381W        W12690  17.441   1.652   6.004
 5382W        W12691   3.544   6.355   8.559
 5383W        W12692   7.483   4.064   8.845
 5384W        W12693  19.907   9.561   9.867
 5385W        W12694   0.814   7.490   7.296
 5386W        W12695   2.952   8.353   8.729
 5387W        W12696   3.977   6.262   6.031
 5388W        W12697  11.759   0.674   0.722
 5389W        W12698  12.284   2.637   8.162
 5390W        W12699   6.914   4.548   8.480
 5391W        W12700   3.593   7.550   7.987
 5392W        W12701   8.961   8.330   7.088
 5393W        W12702   9.965   5.450   0.324
 5394W        W12703   8.564   0.037   8.869
 5395W        W12704  15.712   8.161   9.632
 5396W        W12705  12.674   1.120   8.903
 5397W        W12706   2.628   1.531   0.648
 5398W        W12707  18.261   5.766   0.600
 5399W        W12708   2.734   5.434   0.644
 5400W        W12709  14.483   8.889   7.735
 5401W        W12710  15.439   3.714   0.457
 5402W        W12711   0.808   0.387   6.522
 5403W        W12712  15.898   6.654   6.344
 5404W        W12713  17.203   9.579   0.158
 5405W        W12714   0.302   4.597   6.412
 5406W        W12715  11.482   8.875   8.826
 5407W        W12716   4.599   1.536   6.538
 5408W        W12717  12.974   1.756   8.884
 5409W        W12718   3.061   6.346   8.436
 5410W        W12719  16.990   2.009   7.356
 5411W        W12720  12.956   6.692   7.565
 5412W        W12721   2.762   5.064   8.264
 5413W        W12722   3.799   4.121   8.449
 5414W        W12723  11.812   7.864   8.203
 5415W        W12724  17.677   1.032   6.534
 5416W        W12725   7.237   4.722   8.127
 5417W        W12726   5.185   4.939   0.410
 5418W        W12727  17.722   2.798   6.164
 5419W        W12728   4.352   6.936   7.280
 5420W        W12729  16.296   9.781   8.025
 5421W        W12730  11.603   6.838   7.465
 5422W        W12731   3.330   3.365   6.602
 5423W        W12732   8.129   5.454   9.763
 5424W        W12733  10.349   4.988   8.211
 5425W        W12734   5.704   2.822   6.448
 5426W        W12735  16.667   6.913   8.906
 5427W        W12736   3.623   6.525   9.031
 5428W        W12737   9.311   2.184   7.453
 5429W        W12738  18.753   3.965   0.076
 5430W        W12739  18.070   9.005   6.387
 5431W        W12740  16.976   2.483   8.142
 5432W        W12741   0.785   8.027   0.352
 5433W        W12742   2.859   0.104   8.292
 5434W        W12743   5.982   1.082   9.784
 5435W        W12744   0.314   8.113   9.321
 5436W        W12745  11.472   6.224   8.066
 5437W        W12746   9.554   1.956   8.775
 5438W        W12747   7.491   3.216   7.958
 5439W        W12748   7.402   1.267   0.144
 5440W        W12749  19.802   5.973   0.044
 5441W        W12750   6.787   6.652   0.201
 5442W        W12751   8.423   4.472   7.276
 5443W        W12752  19.580   9.079   7.084
 5444W        W12753   0.595   5.067   7.935
 5445W        W12754   4.866   6.500   9.908
 5446W        W12755  11.476   8.082   7.788
 5447W        W12756  14.995   5.142   6.009
 5448W        W12757   5.365   3.599   8.556
 5449W        W12758  16.383   0.010   9.343
 5450W        W12759   1.532   1.271   9.707
 5451W        W12760  13.102   9.924   8.851
 5452W        W12761  10.649   9.873   6.725
 5453W        W12762   2.048   5.055   9.875
 5454W        W12763   4.617   8.008   0.158
 5455W        W12764  13.429   2.296   6.903
 5456W        W12765  12.319   7.800   0.643
 5457W        W12766   3.877   5.940   7.027
 5458W        W12767   6.873   8.339   7.973
 5459W        W12768   5.032   2.312   7.673
 5460W        W12769   3.984   2.486   6.124
 5461W        W12770  18.232   9.306   7.165
 5462W        W12771  17.769   3.250   6.382
 5463W        W12772   2.545   2.593   0.525
 5464W        W12773   3.441   5.078   6.899
 5465W        W12774   8.104   5.769   7.480
 5466W        W12775  17.908   6.600   0.684
 5467W        W12776  17.256   9.320   8.284
 5468W        W12777  19.838   2.280   7.940
 5469W        W12778  17.913   5.466   6.963
 5470W        W12779   3.777   8.774   7.166
 5471W        W12780   6.073   4.058   9.727
 5472W        W12781  14.942   7.490   0.529
 5473W        W12782   1.157   8.682   7.966
 5474W        W12783  13.101   2.191   9.751
 5475W        W12784   2.205   3.767   8.014
 5476W        W12785  18.139   9.594   0.559
 5477W        W12786  10.893   6.618   0.470
 5478W        W12787   8.997   0.414   8.577
 5479W        W12788  13.613   5.304   7.701
 5480W        W12789   1.488   0.322   5.970
 5481W        W12790  17.149   0.832   0.840
 5482W        W12791  18.419   0.722   6.463
 5483W        W12792   4.462   9.282   8.917
 5484W        W12793   1.782   9.675   7.024
 5485W        W12794   7.159   6.223   0.497
 5486W        W12795  16.000   8.581   7.720
 5487W        W12796  17.948   9.524   8.816
 5488W        W12797  16.064   0.820   9.302
 5489W        W12798   6.913   5.941   8.200
 5490W        W12799  10.665   6.580   7.875
 5491W        W12800  19.112   9.248   9.494
 5492W        W12801  18.263   4.228   7.152
 5493W        W12802  16.832   3.410   7.716
 5494W        W12803   3.830   2.306   7.495
 5495W        W12804   8.318   3.050   8.397
 5496W        W12805   3.518   6.842   7.027
 5497W        W12806   8.638   7.024   6.130
 5498W        W12807   8.904   8.221   8.885
 5499W        W12808   6.468   5.497   8.480
 5500W        W12809  15.333   4.001   8.183
 5501W        W12810   2.496   5.675   9.437
 5502W        W12811  12.228   8.300   0.646
 5503W        W12812  18.358   1.704   9.987
 5504W        W12813   0.145   2.087   6.863
 5505W        W12814   2.107   2.810   9.570
 5506W        W12815   9.523   5.011   7.416
 5507W        W12816   5.352   4.662   8.981
 5508W        W12817   8.653   6.473   9.086
 5509W        W12818  14.367   1.697   6.861
 5510W        W12819  13.463   9.196   8.398
 5511W        W12820  10.976   6.163   7.874
 5512W        W12821   9.583   1.869   0.107
 5513W        W12822  16.663   2.616   0.181
 5514W        W12823  11.884   5.510   7.101
 5515W        W12824   7.097   8.720   0.235
 5516W        W12825   7.299   3.501   0.138
 5517W        W12826   7.652   6.385   6.265
 5518W        W12827  10.846   0.286   6.357
 5519W        W12828  16.857   2.533   9.168
 5520W        W12829  18.092   4.469   0.247
 5521W        W12830   1.721   9.254   9.277
 5522W        W12831  12.464   0.187   9.424
 5523W        W12832  11.673   5.523   0.223
 5524W        W12833   9.375   5.957   0.826
 5525W        W12834  12.084   0.978   7.039
 5526W        W12835  12.948   4.516   7.849
 5527W        W12836   4.169   5.930   8.825
 5528W        W12837   2.947   4.209   8.836
 5529W        W12838  16.086   9.481   7.000
 5530W        W12839  13.015   3.616   9.372
 5531W        W12840   1.633   5.710   7.969
 5532W        W12841   0.071   3.002   8.650
 5533W        W12842  14.347   9.209   6.415
 5534W        W12843  17.307   9.091   0.351
 5535W        W12844   2.788   6.571   9.782
 5536W        W12845  14.119   2.090   6.611
 5537W        W12846  10.968   9.460   6.699
 5538W        W12847   7.979   1.326   0.822
 5539W        W12848   5.309   5.924   6.220
 5540W        W12849   2.799   2.550   9.248
 5541W        W12850  17.930   4.114   6.299
 5542W        W12851   5.233   7.405   7.253
 5543W        W12852  17.358   6.404   8.790
 5544W        W12853   0.797   1.001   7.829
 5545W        W12854   8.248   2.203   6.600
 5546W        W12855  10.105   0.497   7.663
 5547W        W12856  19.155   6.820   7.475
 5548W        W12857  18.850   3.519   9.621
 5549W        W12858  13.001   1.249   0.967
 5550W        W12859  11.137   9.207   9.609
 5551W        W12860   2.349   8.927   9.654
 5552W        W12861   0.204   8.968   7.820
 5553W        W12862   0.444   2.925   8.271
 5554W        W12863   6.113   5.150   8.823
 5555W        W12864  18.769   5.842   9.194
 5556W        W12865  15.294   9.790   1.121
 5557W        W12866  16.658   1.515   6.723
 5558W        W12867   5.981   6.573   6.558
 5559W        W12868   1.121   1.684   8.133
 5560W        W12869  19.893   6.769   6.913
 5561W        W12870  11.620   9.857   0.241
 5562W        W12871  17.083   1.650   6.445
 5563W        W12872  17.310   1.293   0.246
 5564W        W12873   1.120   5.555   8.477
 5565W        W12874  10.131   9.903   5.910
 5566W        W12875   7.024   0.790   7.992
 5567W        W12876  13.380   3.211   0.382
 5568W        W12877  15.049   2.118   0.270
 5569W        W12878  19.904   3.628   0.273
 5570W        W12879   9.519   9.082   7.853
 5571W        W12880   5.144   0.724   0.068
 5572W        W12881   6.236   9.752   7.010
 5573W        W12882   4.299   4.495   9.844
 5574W        W12883  17.690   9.911   7.589
 5575W        W12884   7.090   7.162   0.301
 5576W        W12885  18.624   3.558   6.365
 5577W        W12886   7.215   6.507   6.510
 5578W        W12887  10.479   6.439   8.317
 5579W        W12888   6.974   9.905   9.341
 5580W        W12889  11.229   8.950   0.149
 5581W        W12890   2.832   8.025   0.704
 5582W        W12891   2.210   3.052   8.018
 5583W        W12892   9.272   0.333   9.415
 5584W        W12893  17.026   7.807   9.861
 5585W        W12894   7.036   9.346   6.147
 5586W        W12895  13.796   5.964   8.331
 5587W        W12896   5.640   1.339   0.086
 5588W        W12897   7.438   5.879   8.474
 5589W        W12898   2.316   9.236   0.089
 5590W        W12899   4.323   9.932   0.979
 5591W        W12900  11.971   6.147   7.854
 5592W        W12901   7.905   6.656   9.881
 5593W        W12902   9.525   9.903   8.071
 5594W        W12903  16.079   6.789   8.963
 5595W        W12904   7.947   4.476   7.550
 5596W        W12905  11.669   0.448   8.160
 5597W        W12906  11.189   8.895   7.339
 5598W        W12907   5.781   6.025   5.936
 5599W        W12908   2.632   1.607   6.962
 5600W        W12909   9.407   2.824   8.867
 5601W        W12910  16.894   0.673   8.251
 5602W        W12911  15.424   1.929   1.181
 5603W        W12912  17.589   1.530   6.474
 5604W        W12913  15.323   8.142   7.115
 5605W        W12914   6.546   9.652   9.120
 5606W        W12915  11.427   9.275   7.576
 5607W        W12916  13.507   0.961   8.531
 5608W        W12917  11.996   0.462   9.415
 5609W        W12918   8.851   5.066   0.611
 5610W        W12919  16.510   0.359   1.117
 5611W        W12920   3.691   9.743   9.159
 5612W        W12921   4.614   9.790   9.846
 5613W        W12922   1.700   9.178   8.354
 5614W        W12923  11.594   2.991   6.159
 5615W        W12924  13.927   1.633   0.019
 5616W        W12925  10.993   2.816   0.751
 5617W        W12926   4.108   2.137   0.265
 5618W        W12927   6.233   9.645   0.495
 5619W        W12928  10.907   4.967   7.954
 5620W        W12929   7.887   1.312   0.263
 5621W        W12930   7.153   6.353   6.031
 5622W        W12931   8.735   1.349   7.719
 5623W        W12932  17.944   3.094   0.500
 5624W        W12933   0.207   7.693   6.175
 5625W        W12934   3.630   3.507   8.843
 5626W        W12935   8.574   4.313   6.253
 5627W        W12936   8.623   3.487   9.806
 5628W        W12937  11.864   7.433   0.359
 5629W        W12938  11.499   3.733   0.790
 5630W        W12939  17.770   7.788   8.618
 5631W        W12940  10.244   2.804   8.004
 5632W        W12941  11.759   1.722   6.638
 5633W        W12942  19.834   8.316   7.810
 5634W        W12943  12.117   8.744   7.818
 5635W        W12944   9.243   9.604   7.390
 5636W        W12945  18.445   8.840   0.256
 5637W        W12946   3.079   1.760   8.821
 5638W        W12947   0.266   1.124   6.782
 5639W        W12948  17.185   3.711   9.876
 5640W        W12949   9.175   9.568   0.519
 5641W        W12950   7.959   1.831   8.897
 5642W        W12951  17.438   4.878   6.290
 5643W        W12952   0.299   0.224   0.345
 5644W        W12953   9.474   1.767   9.605
 5645W        W12954   8.731   0.238   9.295
 5646W        W12955  16.365   9.488   9.403
 5647W        W12956   5.493   4.990   8.157
 5648W        W12957   3.961   0.630   7.848
 5649W        W12958  13.478   5.906   7.911
 5650W        W12959   4.805   2.505   0.332
 5651W        W12960   0.594   0.819   8.270
 5652W        W12961   4.167   6.337   6.481
 5653W        W12962   8.960   2.124   0.766
 5654W        W12963   5.091   1.494   6.727
 5655W        W12964  17.726   1.436   1.097
 5656W        W12965   5.427   5.051   9.480
 5657W        W12966   2.117   4.563   9.722
 5658W        W12967   2.332   0.598   0.425
 5659W        W12968  12.603   0.659   8.102
 5660W        W12969   3.016   1.763   7.911
 5661W        W12970   5.418   8.233   9.923
 5662W        W12971  17.784   2.703   0.783
 5663W        W12972  13.186   4.070   0.121
 5664W        W12973   6.798   3.432   0.210
 5665W        W12974   8.831   9.756   7.125
 5666W        W12975   3.874   6.786   8.676
 5667W        W12976   1.736   5.649   6.492
 5668W        W12977  17.114   5.609   8.465
 5669W        W12978   2.376   4.780   8.583
 5670W        W12979   7.998   9.435   0.552
 5671W        W12980  16.600   5.849   9.486
 5672W        W12981   8.960   7.835   7.282
 5673W        W12982   4.774   5.939   6.503
 5674W        W12983  14.888   8.925   9.848
 5675W        W12984   5.051   2.274   8.212
 5676W        W12985  17.001   4.599   5.612
 5677W        W12986   9.716   5.008   0.241
 5678W        W12987   0.672   9.949   8.386
 5679W        W12988   5.869   0.847   6.587
 5680W        W12989   8.035   8.980   7.454
 5681W        W12990  17.333   2.880   7.494
 5682W        W12991   1.772   7.948   6.516
 5683W        W12992  10.415   0.106   7.575
 5684W        W12993   7.289   2.602   0.540
 5685W        W12994   0.466   1.661   8.452
 5686W        W12995  10.549   2.607   0.608
 5687W        W12996   6.408   6.422   0.960
 5688W        W12997  14.637   8.051   9.586
 5689W        W12998  19.290   6.306   8.376
 5690W        W12999  15.510   4.216   9.684
 5691W        W13000   9.283   1.026   0.302
 5692W        W13001  13.830   3.148   0.105
 5693W        W13002  11.147   2.685   7.520
 5694W        W13003  17.830   0.855   8.673
 5695W        W13004   2.125   6.774   8.022
 5696W        W13005  14.566   7.593   0.835
 5697W        W13006   4.600   0.745   6.520
 5698W        W13007  16.867   0.692   7.069
 5699W        W13008  17.823   3.332   7.992
 5700W        W13009  10.725   8.905   9.311
 5701W        W13010   0.910   0.058   0.903
 5702W        W13011   7.941   4.600   0.257
 5703W        W13012  11.384   0.349   6.442
 5704W        W13013  13.226   6.090   6.181
 5705W        W13014   6.481   6.923   0.894
 5706W        W13015  19.001   2.910   6.816
 5707W        W13016  12.487   3.501   7.642
 5708W        W13017  15.757   6.147   9.450
 5709W        W13018   1.832   9.520   7.997
 5710W        W13019  17.379   2.138   8.691
 5711W        W13020   6.765   6.732   7.416
 5712W        W13021   7.999   6.207   0.712
 5713W        W13022   8.906   1.322   9.900
 5714W        W13023  11.569   7.419   8.362
 5715W        W13024   1.070   7.472   0.880
 5716W        W13025  19.502   3.743   8.840
 5717W        W13026  19.092   3.454   6.547
 5718W        W13027  12.654   1.308   9.949
 5719W        W13028  10.477   9.407   9.285
 5720W        W13029   8.665   7.316   9.549
 5721W        W13030  16.439   8.326   7.454
 5722W        W13031  18.055   4.372   8.967
 5723W        W13032   4.120   5.902   9.990
 5724W        W13033   2.133   4.190   7.712
 5725W        W13034   3.424   1.338   0.060
 5726W        W13035   0.626   2.997   9.897
 5727W        W13036  19.857   9.849   9.447
 5728W        W13037  15.158   6.977   6.417
 5729W        W13038   9.340   8.031   8.677
 5730W        W13039  10.585   4.761   6.706
 5731W        W13040  17.349   2.594   8.944
 5732W        W13041  12.586   5.990   7.251
 5733W        W13042  10.226   3.235   8.900
 5734W        W13043   1.818   6.197   9.900
 5735W        W13044  15.943   1.991   7.828
 5736W        W13045   7.471   5.899   0.021
 5737W        W13046   1.792   2.445   6.284
 5738W        W13047   2.136   6.622   0.636
 5739W        W13048  12.986   9.440   9.503
 5740W        W13049   9.019   7.957   0.282
 5741W        W13050   0.328   8.871   6.404
 5742W        W13051  13.062   3.669   0.910
 5743W        W13052  11.986   4.635   6.434
 5744W        W13053   7.483   9.282   6.867
 5745W        W13054   2.047   5.570   8.261
 5746W        W13055  16.272   0.455   9.623
 5747W        W13056   6.658   4.743   9.803
 5748W        W13057   5.792   0.608   7.158
 5749W        W13058  13.955   5.425   5.838
 5750W        W13059   1.164   9.221   0.875
 5751W        W13060   6.245   1.280   7.279
 5752W        W13061   5.028   1.378   9.019
 5753W        W13062   6.506   8.792   8.549
 5754W        W13063   2.341   6.875   8.469
 5755W        W13064   6.752   9.971   8.805
 5756W        W13065  10.060   4.360   6.092
 5757W        W13066  17.650   5.602   0.043
 5758W        W13067  16.001   7.349   7.460
 5759W        W13068   7.026   3.635   7.382
 5760W        W13069  18.330   5.249   6.149
 5761W        W13070   5.508   2.157   0.007
 5762W        W13071  18.176   0.850   0.745
 5763W        W13072   5.254   6.020   6.787
 5764W        W13073  12.415   8.867   9.588
 5765W        W13074   7.638   5.032   6.475
 5766W        W13075   2.554   2.132   7.093
 5767W        W13076   4.798   6.370   0.798
 5768W        W13077   1.913   6.174   0.849
 5769W        W13078   5.727   7.901   7.676
 5770W        W13079   8.051   3.696   6.723
 5771W        W13080   5.099   5.684   7.623
 5772W        W13081   0.832   3.551   0.693
 5773W        W13082   8.504   1.524   9.642
 5774W        W13083  10.593   5.237   6.355
 5775W        W13084   7.560   8.912   0.075
 5776W        W13085  12.801   0.466   6.365
 5777W        W13086  17.445   1.727   0.514
 5778W        W13087   9.483   4.217   9.722
 5779W        W13088  16.213   8.876   8.153
 5780W        W13089  13.929   1.977   6.143
 5781W        W13090   3.395   2.108   7.331
 5782W        W13091   1.309   4.416   0.907
 5783W        W13092   1.096   0.703   7.080
 5784W        W13093  13.883   2.276   7.889
 5785W        W13094   7.315   0.394   7.794
 5786W        W13095   5.362   2.959   5.951
 5787W        W13096  13.066   6.924   0.268
 5788W        W13097  13.497   9.651   8.670
 5789W        W13098  19.874   4.710   8.711
 5790W        W13099  15.011   4.125   6.854
 5791W        W13100  15.570   5.873   6.715
 5792W        W13101  15.340   5.407   6.991
 5793W        W13102  11.034   2.278   6.596
 5794W        W13103   3.717   8.769   0.166
 5795W        W13104   9.287   1.739   8.388
 5796W        W13105   7.532   0.204   0.911
 5797W        W13106  11.105   7.930   7.343
 5798W        W13107   1.384   4.871   0.623
 5799W        W13108   2.222   0.710   9.929
 5800W        W13109   7.209   8.876   6.400
 5801W        W13110   1.021   1.159   9.657
 5802W        W13111  14.044   7.983   8.888
 5803W        W13112  15.999   6.625   9.425
 5804W        W13113   8.753   9.864   0.497
 5805W        W13114  13.165   1.772   9.372
 5806W        W13115   4.269   8.588   8.287
 5807W        W13116  18.030   9.056   7.568
 5808W        W13117  10.413   2.168   9.736
 5809W        W13118  15.076   7.599   9.259
 5810W        W13119  10.523   8.399   8.466
 5811W        W13120   8.955   4.203   9.718
 5812W        W13121  16.361   6.736   9.772
 5813W        W13122   5.044   2.789   9.523
 5814W        W13123   8.712   8.339   5.891
 5815W        W13124   3.136   3.700   8.043
 5816W        W13125  17.378   6.549   7.763
 5817W        W13126  11.900   0.257   6.376
 5818W        W13127  19.814   8.428   7.295
 5819W        W13128  12.617   7.136   6.813
 5820W        W13129  19.273   0.548   8.040
 5821W        W13130   5.154   4.857   8.550
 5822W        W13131  15.889   0.483   6.850
 5823W        W13132  15.938   2.706   7.627
 5824W        W13133  13.827   8.484   7.410
 5825W        W13134   5.852   0.875   8.832
 5826W        W13135  17.720   5.898   6.225
 5827W        W13136   0.524   2.421   8.796
 5828W        W13137   6.729   2.843   6.408
 5829W        W13138   6.670   5.699   9.804
 5830W        W13139  12.631   6.206   0.444
 5831W        W13140   7.767   7.402   8.180
 5832W        W13141  13.516   9.903   7.116
 5833W        W13142   7.852   1.046   6.741
 5834W        W13143  15.339   7.842   7.587
 5835W        W13144   0.383   0.238   8.759
 5836W        W13145  14.415   0.350   9.484
 5837W        W13146   6.361   5.312   7.048
 5838W        W13147   4.757   6.651   8.921
 5839W        W13148   4.368   8.999   6.748
 5840W        W13149   6.498   9.509   7.857
 5841W        W13150   9.404   7.735   8.242
 5842W        W13151  15.028   7.392   8.325
 5843W        W13152  19.764   0.855   7.226
 5844W        W13153   6.568   6.322   7.662
 5845W        W13154   0.630   8.989   8.736
 5846W        W13155  17.237   4.461   6.048
 5847W        W13156  18.736   6.967   6.581
 5848W        W13157   7.447   1.230   9.604
 5849W        W13158   0.349   1.115   9.188
 5850W        W13159  13.337   4.657   6.552
 5851W        W13160   2.795   0.083   9.867
 5852W        W13161   4.691   9.252   8.395
 5853W        W13162  15.974   4.107   0.434
 5854W        W13163  12.887   3.457   7.286
 5855W        W13164   7.807   8.670   8.385
 5856W        W13165   9.378   7.699   0.573
 5857W        W13166   1.305   3.364   0.839
 5858W        W13167  19.002   0.056   0.452
 5859W        W13168  13.753   1.711   6.557
 5860W        W13169  19.770   1.737   6.708
 5861W        W13170  15.624   8.879   0.812
 5862W        W13171  14.585   3.643   7.845
 5863W        W13172  12.682   5.170   8.329
 5864W        W13173   5.676   3.439   6.791
 5865W        W13174  19.897   3.572   7.267
 5866W        W13175   5.544   9.330   7.051
 5867W        W13176  17.912   6.139   9.386
 5868W        W13177   7.965   6.627   0.993
 5869W        W13178  11.163   2.974   9.138
 5870W        W13179  18.713   4.448   6.404
 5871W        W13180   3.082   0.934   0.799
 5872W        W13181   9.674   5.504   0.754
 5873W        W13182   0.607   8.536   9.316
 5874W        W13183  19.919   0.409   6.344
 5875W        W13184   7.528   9.875   9.745
 5876W        W13185   7.287   6.411   1.194
 5877W        W13186  17.910   0.765   9.717
 5878W        W13187  19.963   0.420   0.676
 5879W        W13188  10.546   1.624   0.584
 5880W        W13189   6.598   7.737   7.217
 5881W        W13190   5.954   5.494   8.463
 5882W        W13191  15.901   3.675   0.661
 5883W        W13192   0.220   1.172   8.360
 5884W        W13193  15.342   7.355   8.883
 5885W        W13194   1.641   1.731   0.688
 5886W        W13195  19.088   7.847   8.902
 5887W        W13196  18.934   8.619   7.474
 5888W        W13197  14.934   3.556   9.232
 5889W        W13198  15.922   4.892   8.839
 5890W        W13199  16.239   8.378   8.849
 5891W        W13200   7.499   5.842   6.817
 5892W        W13201   6.881   0.420   8.616
 5893W        W13202  16.582   3.125   8.665
 5894W        W13203   8.831   1.055   6.848
 5895W        W13204  11.930   8.473   7.137
 5896W        W13205  10.396   2.943   9.301
 5897W        W13206   0.143   2.516   8.408
 5898W        W13207   6.483   6.001   8.480
 5899W        W13208   7.264   0.396   6.211
 5900W        W13209  17.733   0.904   8.173
 5901W        W13210  18.600   6.544   9.576
 5902W        W13211   8.401   9.009   6.655
 5903W        W13212  18.406   8.032   8.847
 5904W        W13213   8.422   0.112   0.162
 5905W        W13214   6.068   8.418   9.236
 5906W        W13215   0.077   7.445   6.610
 5907W        W13216   6.884   8.078   5.828
 5908W        W13217   9.592   4.166   6.235
 5909W        W13218   0.421   6.846   8.155
 5910W        W13219   0.072   5.379   0.422
 5911W        W13220  16.111   5.414   6.131
 5912W        W13221  15.526   3.010   9.404
 5913W        W13222   7.441   4.361   9.253
 5914W        W13223  18.670   2.194   9.489
 5915W        W13224   2.696   3.733   7.769
 5916W        W13225  18.299   4.366   6.079
 5917W        W13226   6.520   6.957   9.394
 5918W        W13227   5.160   7.208   9.414
 5919W        W13228   3.140   0.594   7.456
 5920W        W13229  16.961   8.383   6.202
 5921W        W13230  15.467   0.984   7.040
 5922W        W13231   8.354   1.155   9.304
 5923W        W13232   0.686   9.390   0.771
 5924W        W13233   2.118   2.029   6.211
 5925W        W13234   1.760   9.952   0.236
 5926W        W13235  19.988   1.009   9.767
 5927W        W13236  14.387   5.617   7.907
 5928W        W13237  18.687   0.343   6.759
 5929W        W13238  18.846   9.252   0.799
 5930W        W13239   5.160   3.892   0.268
 5931W        W13240   5.973   0.795   7.962
 5932W        W13241  16.916   8.357   6.732
 5933W        W13242   9.086   2.082   7.903
 5934W        W13243  13.100   0.480   0.580
 5935W        W13244   3.186   6.829   8.017
 5936W        W13245   1.279   9.739   0.158
 5937W        W13246   4.055   9.252   7.078
 5938W        W13247  12.100   2.582   1.039
 5939W        W13248   4.593   6.691   7.669
 5940W        W13249  16.875   0.365   7.463
 5941W        W13250   8.548   2.644   7.469
 5942W        W13251   6.057   9.033   8.537
 5943W        W13252   2.585   2.971   8.364
 5944W        W13253  13.933   9.734   8.425
 5945W        W13254  13.684   5.919   6.486
 5946W        W13255  19.703   4.257   8.931
 5947W        W13256  12.132   6.087   0.794
 5948W        W13257  12.979   5.591   8.382
 5949W        W13258   4.380   1.814   8.725
 5950W        W13259   0.066   8.561   9.265
 5951W        W13260  11.334   6.825   6.377
 5952W        W13261   3.466   6.254   8.045
 5953W        W13262  13.305   4.247   6.227
 5954W        W13263   6.402   0.018   6.212
 5955W        W13264   7.637   2.772   6.623
 5956W        W13265  19.693   7.801   6.105
 5957W        W13266  10.122   0.679   6.137
 5958W        W13267   7.394   0.488   8.848
 5959W        W13268  19.169   1.072   9.701
 5960W        W13269   7.642   9.712   0.778
 5961W        W13270  14.092   4.041   9.086
 5962W        W13271  13.068   2.422   6.549
 5963W        W13272   0.354   5.401   6.836
 5964W        W13273  12.761   8.208   9.972
 5965W        W13274   0.489   7.900   6.576
 5966W        W13275  19.495   0.112   9.721
 5967W        W13276   0.762   5.737   6.897
 5968W        W13277   3.282   9.238   8.330
 5969W        W13278   9.032   7.400   9.214
 5970W        W13279   0.753   1.202   0.120
 5971W        W13280  10.609   8.394   6.290
 5972W        W13281  14.355   6.787   6.119
 5973W        W13282  19.518   1.237   9.033
 5974W        W13283  10.857   2.949   9.566
 5975W        W13284   2.981   1.339   0.325
 5976W        W13285  16.241   8.994   6.853
 5977W        W13286  10.618   1.026   7.942
 5978W        W13287  15.478   0.136   7.520
 5979W        W13288   1.848   8.826   6.518
 5980W        W13289  12.778   6.765   5.919
 5981W        W13290   2.460   1.264   6.611
 5982W        W13291   3.738   1.276   8.286
 5983W        W13292   5.266   7.695   9.382
 5984W        W13293  19.416   5.075   9.305
 5985W        W13294   3.217   8.010   6.555
 5986W        W13295   9.378   9.669   8.507
 5987W        W13296   7.290   5.489   5.889
 5988W        W13297   8.481   9.759   9.297
 5989W        W13298  11.047   5.371   0.079
 5990W        W13299  15.065   4.138   9.445
 5991W        W13300  19.948   3.815   1.188
 5992W        W13301   9.547   9.728   9.323
 5993W        W13302  15.019   2.800   7.583
 5994W        W13303   8.578   2.546   6.406
 5995W        W13304  12.261   2.934   6.877
 5996W        W13305   1.552   1.580   9.297
 5997W        W13306  17.154   9.803   6.201
 5998W        W13307   5.823   5.195   6.724
 5999W        W13308   8.054   5.011   6.776
 6000W        W13309  11.814   0.156   7.781
 6001W        W13310  13.885   6.812   9.250
 6002W        W13311   1.225   4.508   8.003
 6003W        W13312  19.657   2.721   0.214
 6004W        W13313  11.099   7.467   8.104
 6005W        W13314   7.244   8.376   7.628
 6006W        W13315  16.464   1.355   0.793
 6007W        W13316   9.413   2.732   7.407
 6008W        W13317  16.810   3.904   8.852
 6009W        W13318  16.319   4.410   6.841
 6010W        W13319  10.454   7.783   9.744
 6011W        W13320   3.224   4.667   8.991
 6012W        W13321   1.086   8.037   9.798
 6013W        W13322  14.961   8.520   0.296
 6014W        W13323  16.875   5.818   0.327
 6015W        W13324   4.545   4.548   9.380
 6016W        W13325   6.362   3.973   9.334
 6017W        W13326  18.323   7.763   1.051
 6018W        W13327  15.891   6.897   7.217
 6019W        W13328  10.984   5.632   8.098
 6020W        W13329  13.631   4.046   0.395
 6021W        W13330  19.171   5.304   8.248
 6022W        W13331  19.132   8.947   7.833
 6023W        W13332   9.946   3.652   9.053
 6024W        W13333  16.667   7.809   0.842
 6025W        W13334   9.036   0.645   9.082
 6026W        W13335   6.301   8.449   7.834
 6027W        W13336  19.864   7.815   8.291
 6028W        W13337  14.286   8.455   0.875
 6029W        W13338   6.449   0.466   7.212
 6030W        W13339  14.921   2.197   9.772
 6031W        W13340   2.160   1.611   9.192
 6032W        W13341  15.243   9.853   8.274
 6033W        W13342  14.428   6.145   0.450
 6034W        W13343  15.424   1.866   5.913
 6035W        W13344   3.100   7.152   6.726
 6036W        W13345   7.576   0.118   6.530
 6037W        W13346  18.046   3.134   1.420
 6038W        W13347  17.830   5.056   8.127
 6039W        W13348  18.599   3.014   6.508
 6040W        W13349  15.468   4.488   6.116
 6041W        W13350   7.456   3.422   9.204
 6042W        W13351   8.874   6.150   8.029
 6043W        W13352  11.364   6.747   0.605
 6044W        W13353   4.141   2.028   0.760
 6045W        W13354   6.480   9.296   6.854
 6046W        W13355  11.018   7.560   0.354
 6047W        W13356  10.239   4.781   6.337
 6048W        W13357  17.746   2.270   6.904
 6049W        W13358  17.909   9.970   0.281
 6050W        W13359  11.714   7.366   9.414
 6051W        W13360   1.039   6.159   7.620
 6052W        W13361   2.590   4.166   7.489
 6053W        W13362  11.851   6.807   6.304
 6054W        W13363  14.924   4.488   8.708
 6055W        W13364  11.968   7.237   6.621
 6056W        W13365  15.002   7.090   7.883
 6057W        W13366  10.774   5.795   0.160
 6058W        W13367  12.395   8.575   9.992
 6059W        W13368   3.332   1.191   9.041
 6060W        W13369   1.507   6.264   9.461
 6061W        W13370  19.903   2.544   7.303
 6062W        W13371  17.968   0.873   0.260
 6063W        W13372  18.641   8.453   8.454
 6064W        W13373   8.423   6.036   0.912
 6065W        W13374   4.166   7.429   7.454
 6066W        W13375  17.657   9.932   8.954
 6067W        W13376   8.913   5.229   6.591
 6068W        W13377   7.561   7.750   6.518
 6069W        W13378  11.369   0.014   8.015
 6070W        W13379  15.004   5.191   6.545
 6071W        W13380  11.409   2.501   0.701
 6072W        W13381  10.382   9.353   0.183
 6073W        W13382  15.773   0.195   8.874
 6074W        W13383  15.813   7.524   6.611
 6075W        W13384  19.736   1.407   0.045
 6076W        W13385  13.838   6.436   9.807
 6077W        W13386   3.659   2.115   0.018
 6078W        W13387  15.975   9.892   8.411
 6079W        W13388  17.751   6.338   7.019
 6080W        W13389   0.430   7.697   0.165
 6081W        W13390   1.444   4.948   9.236
 6082W        W13391  15.071   6.669   6.860
 6083W        W13392   3.124   8.232   8.221
 6084W        W13393  17.332   9.909   7.995
 6085W        W13394  17.757   4.068   0.696
 6086W        W13395   5.994   0.403   8.717
 6087W        W13396  11.956   6.337   6.516
 6088W        W13397   7.499   9.528   8.089
 6089W        W13398  11.041   0.730   6.495
 6090W        W13399  12.913   5.444   0.716
 6091W        W13400   6.184   3.542   6.918
 6092W        W13401   7.138   4.765   9.371
 6093W        W13402  11.598   3.085   6.896
 6094W        W13403  17.183   7.388   6.966
 6095W        W13404  10.310   3.770   9.795
 6096W        W13405  18.369   3.935   9.024
 6097W        W13406  13.844   4.949   9.137
 6098W        W13407  17.024   9.227   7.846
 6099W        W13408  13.238   4.959   0.074
 6100W        W13409  12.112   6.976   1.031
 6101W        W13410   1.241   2.605   6.879
 6102W        W13411  14.069   3.748   7.756
 6103W        W13412   7.439   2.119   9.655
 6104W        W13413  19.167   9.999   7.898
 6105W        W13414  17.865   4.396   9.792
 6106W        W13415   5.825   9.396   0.300
 6107W        W13416  17.491   5.410   6.370
 6108W        W13417   5.494   9.238   6.562
 6109W        W13418  13.857   8.384   9.219
 6110W        W13419   3.064   9.691   7.004
 6111W        W13420   4.208   0.597   7.413
 6112W        W13421  10.298   0.960   7.524
 6113W        W13422  19.313   5.793   8.258
 6114W        W13423  14.070   7.027   8.791
 6115W        W13424   9.389   6.357   0.257
 6116W        W13425  12.026   6.183   9.750
 6117W        W13426  16.332   4.836   8.271
 6118W        W13427  12.598   3.868   7.308
 6119W        W13428  17.309   8.764   6.082
 6120W        W13429  14.224   6.574   7.867
 6121W        W13430   2.893   1.994   8.377
 6122W        W13431  16.902   8.409   7.240
 6123W        W13432   4.287   3.891   6.455
 6124W        W13433  16.246   2.177   6.204
 6125W        W13434   7.570   3.031   7.066
 6126W        W13435   3.592   1.235   6.762
 6127W        W13436  17.975   9.985   8.551
 6128W        W13437  15.400   2.335   9.851
 6129W        W13438  13.531   5.145   8.739
 6130W        W13439  18.560   1.344   6.337
 6131W        W13440   3.007   4.101   8.332
 6132W        W13441  10.714   8.813   7.646
 6133W        W13442  18.226   6.765   8.290
 6134W        W13443   9.601   1.068   7.332
 6135W        W13444  17.505   3.002   0.190
 6136W        W13445   4.874   0.919   8.745
 6137W        W13446   3.821   0.728   9.219
 6138W        W13447  11.632   9.189   8.405
 6139W        W13448   9.733   3.181   9.055
 6140W        W13449  11.980   9.309   7.608
 6141W        W13450   4.601   0.717   8.337
 6142W        W13451  13.820   8.801   6.978
 6143W        W13452  16.259   9.654   7.478
 6144W        W13453   7.607   7.728   0.990
 6145W        W13454  15.560   7.398   8.416
 6146W        W13455  10.788   6.036   8.360
 6147W        W13456  14.654   8.551   8.956
 6148W        W13457  18.300   8.265   9.794
 6149W        W13458   2.683   3.567   0.167
 6150W        W13459  11.468   7.788   9.645
 6151W        W13460  19.438   5.612   8.724
 6152W        W13461   1.790   3.429   8.104
 6153W        W13462  11.315   4.849   5.878
 6154W        W13463   0.230   0.638   9.043
 6155W        W13464  14.758   9.305   7.101
 6156W        W13465  12.174   0.249   9.003
 6157W        W13466   7.962   4.156   7.987
 6158W        W13467  10.957   0.134   8.339
 6159W        W13468   4.250   1.138   6.703
 6160W        W13469  11.493   1.698   7.092
 6161W        W13470  18.668   5.963   6.803
 6162W        W13471   0.640   8.515   0.255
 6163W        W13472  16.471   2.150   9.136
 6164W        W13473  17.938   8.267   6.306
 6165W        W13474  10.968   3.175   7.686
 6166W        W13475   6.663   7.695   6.705
 6167W        W13476   1.137   8.908   9.642
 6168W        W13477  17.709   5.028   8.609
 6169W        W13478   7.517   5.381   8.429
 6170W        W13479   8.508   4.162   8.863
 6171W        W13480  19.410   0.122   8.838
 6172W        W13481  18.563   3.771   0.907
 6173W        W13482   1.316   9.727   6.740
 6174W        W13483   7.755   0.619   6.416
 6175W        W13484   9.477   5.117   9.800
 6176W        W13485   0.967   4.095   9.200
 6177W        W13486   9.829   2.966   8.595
 6178W        W13487  17.117   8.883   7.087
 6179W        W13488  15.951   9.483   9.743
 6180W        W13489  12.084   8.088   8.592
 6181W        W13490  13.498   3.621   0.649
 6182W        W13491  17.803   8.629   8.226
 6183W        W13492  11.254   0.648   0.742
 6184W        W13493   4.568   5.473   7.761
 6185W        W13494   4.688   4.673   6.618
 6186W        W13495   3.084   3.233   7.093
 6187W        W13496   5.829   4.498   8.850
 6188W        W13497   3.060   3.707   0.496
 6189W        W13498  17.399   0.023   0.283
 6190W        W13499  16.718   1.712   9.745
 6191W        W13500   4.272   8.039   0.538
 6192W        W13501  12.037   3.851   9.602
 6193W        W13502   4.101   9.912   9.456
 6194W        W13503  14.521   3.669   8.804
 6195W        W13504   3.436   0.608   7.885
 6196W        W13505   2.827   4.594   7.733
 6197W        W13506  11.928   2.992   9.178
 6198W        W13507   5.635   4.726   0.251
 6199W        W13508  10.083   9.372   6.632
 6200W        W13509  17.651   3.181   6.888
 6201W        W13510   7.981   4.659   6.394
 6202W        W13511  19.876   3.693   9.745
 6203W        W13512  11.276   3.781   6.656
 6204W        W13513  11.547   2.325   9.690
 6205W        W13514   8.168   4.921   9.258
 6206W        W13515   1.374   8.464   9.725
 6207W        W13516  15.502   9.274   6.411
 6208W        W13517  16.001   2.156   9.321
 6209W        W13518  15.273   0.319   7.975
 6210W        W13519   0.156   1.908   5.784
 6211W        W13520  16.380   7.350   6.603
 6212W        W13521   9.431   6.901   7.575
 6213W        W13522  14.343   6.574   8.722
 6214W        W13523   7.612   8.574   6.211
 6215W        W13524   1.254   8.346   7.572
 6216W        W13525   7.816   9.620   7.196
 6217W        W13526  15.550   1.736   0.712
 6218W        W13527   2.611   4.114   6.435
 6219W        W13528  13.666   6.365   7.027
 6220W        W13529  11.280   2.119   9.178
 6221W        W13530  19.029   4.587   7.704
 6222W        W13531   8.559   9.001   7.418
 6223W        W13532  18.311   9.391   6.662
 6224W        W13533  19.891   5.378   6.593
 6225W        W13534   7.779   2.102   8.363
 6226W        W13535  15.019   1.940   6.895
 6227W        W13536  10.109   7.908   9.379
 6228W        W13537   6.603   6.338   6.151
 6229W        W13538   2.699   9.189   0.411
 6230W        W13539  12.122   2.496   7.149
 6231W        W13540  13.078   1.314   9.589
 6232W        W13541   4.305   5.887   6.231
 6233W        W13542   6.173   9.863   9.476
 6234W        W13543   1.637   9.998   8.015
 6235W        W13544  16.840   7.372   0.154
 6236W        W13545  17.490   9.831   7.104
 6237W        W13546   0.404   6.549   6.946
 6238W        W13547   7.045   8.454   6.639
 6239W        W13548   3.002   4.987   7.425
 6240W        W13549   2.522   1.647   7.827
 6241W        W13550   0.233   5.420   8.048
 6242W        W13551   4.793   0.707   6.064
 6243W        W13552   5.190   0.922   9.181
 6244W        W13553   5.744   1.513   9.638
 6245W        W13554  18.664   3.128   8.457
 6246W        W13555  19.482   3.824   0.061
 6247W        W13556  15.574   2.869   8.913
 6248W        W13557  12.841   5.900   9.304
 6249W        W13558  19.782   4.301   6.273
 6250W        W13559  15.357   5.908   0.705
 6251W        W13560  10.880   1.520   6.879
 6252W        W13561   9.495   2.196   8.312
 6253W        W13562  19.167   4.222   7.039
 6254W        W13563   5.375   1.553   6.286
 6255W        W13564   7.992   6.790   9.366
 6256W        W13565   9.488   0.142   7.069
 6257W        W13566   8.503   5.980   0.372
 6258W        W13567  19.685   8.207   9.331
 6259W        W13568   0.730   4.431   6.662
 6260W        W13569   1.252   5.410   9.080
 6261W        W13570  19.443   4.418   8.488
 6262W        W13571  14.331   1.812   0.739
 6263W        W13572   7.584   1.994   7.085
 6264W        W13573   3.264   3.122   8.901
 6265W        W13574   0.101   2.969   9.187
 6266W        W13575   7.858   8.172   6.455
 6267W        W13576   6.616   8.472   6.363
 6268W        W13577  13.960   3.602   9.347
 6269W        W13578  15.827   4.016   7.939
 6270W        W13579   2.766   8.021   6.797
 6271W        W13580  16.018   6.003   7.005
 6272W        W13581   2.086   3.184   7.121
 6273W        W13582  10.443   3.115   0.667
 6274W        W13583  18.489   5.398   7.455
 6275W        W13584  14.155   6.371   9.179
 6276W        W13585  16.478   0.833   8.990
 6277W        W13586  13.984   3.643   8.785
 6278W        W13587  14.413   4.419   9.213
 6279W        W13588   5.137   3.242   7.261
 6280W        W13589  13.955   5.950   0.127
 6281W        W13590   1.630   6.032   7.437
 6282W        W13591  17.762   1.342   8.447
 6283W        W13592  19.352   3.201   5.943
 6284W        W13593   4.266   4.192   8.201
 6285W        W13594   4.977   1.253   0.725
 6286W        W13595   4.340   2.469   0.566
 6287W        W13596  15.441   8.000   9.216
 6288W        W13597   6.539   1.235   0.565
 6289W        W13598  12.048   3.014   0.730
 6290W        W13599  12.775   6.319   6.175
 6291W        W13600  12.439   2.845   7.368
 6292W        W13601  19.650   9.212   9.531
 6293W        W13602  13.913   1.064   8.194
 6294W        W13603   3.487   4.161   6.520
 6295W        W13604   2.746   9.585   8.271
 6296W        W13605   8.557   3.234   8.844
 6297W        W13606  19.216   1.502   9.958
 6298W        W13607  19.012   3.012   7.430
 6299W        W13608  19.917   3.715   8.079
 6300W        W13609  15.587   4.526   6.993
 6301W        W13610  17.275   0.778   7.935
 6302W        W13611  13.426   5.436   6.712
 6303W        W13612   0.114   5.880   7.783
 6304W        W13613  10.996   1.555   6.320
 6305W        W13614   7.714   7.508   9.087
 6306W        W13615   6.614   7.797   9.497
 6307W        W13616  17.795   6.392   6.495
 6308W        W13617   9.016   2.567   7.685
 6309W        W13618   4.847   8.278   7.033
 6310W        W13619   2.488   2.998   6.213
 6311W        W13620   8.452   1.663   7.401
 6312W        W13621  16.887   2.112   9.451
 6313W        W13622  10.213   8.593   6.029
 6314W        W13623  16.581   5.555   5.958
 6315W        W13624   6.999   5.518   8.479
 6316W        W13625   0.487   0.805   0.300
 6317W        W13626  11.259   5.797   0.338
 6318W        W13627  19.420   0.299   6.334
 6319W        W13628  16.299   8.959   9.481
 6320W        W13629  10.171   8.238   9.755
 6321W        W13630   3.560   5.425   9.362
 6322W        W13631  10.764   8.305   8.936
 6323W        W13632  15.295   3.190   0.580
 6324W        W13633   3.050   4.129   7.271
 6325W        W13634  11.344   3.935   7.141
 6326W        W13635   6.749   7.760   9.020
 6327W        W13636  12.969   7.881   8.967
 6328W        W13637   7.905   5.992   6.508
 6329W        W13638   9.756   6.008   6.391
 6330W        W13639   5.133   8.535   8.427
 6331W        W13640   3.763   1.050   8.796
 6332W        W13641  14.382   5.630   0.421
 6333W        W13642  17.977   6.863   8.743
 6334W        W13643  10.208   0.363   0.353
 6335W        W13644  10.650   8.289   7.954
 6336W        W13645   3.760   6.670   8.197
 6337W        W13646   3.871   1.003   6.355
 6338W        W13647   4.112   2.272   9.786
 6339W        W13648  16.965   3.186   9.903
 6340W        W13649   5.363   1.546   0.902
 6341W        W13650  12.931   3.169   0.148
 6342W        W13651   4.107   5.474   9.383
 6343W        W13652   8.193   7.635   8.846
 6344W        W13653  13.735   6.363   7.922
 6345W        W13654   8.632   1.233   6.383
 6346W        W13655  15.667   9.997   8.006
 6347W        W13656  17.813   2.333   6.355
 6348W        W13657   6.700   8.841   6.699
 6349W        W13658  17.438   8.107   9.063
 6350W        W13659   2.277   7.912   6.654
 6351W        W13660  16.801   6.306   0.167
 6352W        W13661   4.741   9.620   0.693
 6353W        W13662  13.057   6.366   9.288
 6354W        W13663  17.253   3.463   6.263
 6355W        W13664  10.397   1.995   7.629
 6356W        W13665   9.603   0.692   6.357
 6357W        W13666   5.862   1.398   6.375
 6358W        W13667   0.717   4.322   8.808
 6359W        W13668   6.969   6.271   7.345
 6360W        W13669   5.425   9.326   9.937
 6361W        W13670  12.296   7.050   9.379
 6362W        W13671   7.591   7.904   8.132
 6363W        W13672   4.320   3.337   7.863
 6364W        W13673   7.304   9.682   6.615
 6365W        W13674  12.720   8.580   0.370
 6366W        W13675  18.427   3.797   9.533
 6367W        W13676  16.115   0.681   0.281
 6368W        W13677   7.038   7.540   7.026
 6369W        W13678   6.419   4.607   8.573
 6370W        W13679  11.902   3.002   8.072
 6371W        W13680  18.030   7.623   0.640
 6372W        W13681   1.151   5.345   0.729
 6373W        W13682  19.616   2.147   6.985
 6374W        W13683  10.080   6.472   9.400
 6375W        W13684   9.418   6.837   9.901
 6376W        W13685  15.899   7.257   8.821
 6377W        W13686   5.042   3.889   8.804
 6378W        W13687  12.928   8.911   9.419
 6379W        W13688  13.936   6.894   7.557
 6380W        W13689   6.376   2.057   8.625
 6381W        W13690  16.073   3.079   8.877
 6382W        W13691   5.786   9.730   7.278
 6383W        W13692  11.313   0.260   0.430
 6384W        W13693  10.440   9.622   0.933
 6385W        W13694  15.011   4.019   0.448
 6386W        W13695   5.237   6.942   6.994
 6387W        W13696  18.937   3.491   8.265
 6388W        W13697  18.849   9.863   8.994
 6389W        W13698   3.777   9.716   7.690
 6390W        W13699   3.906   9.606   6.727
 6391W        W13700  16.141   7.558   7.010
 6392W        W13701   3.308   1.784   9.831
 6393W        W13702   6.953   2.201   0.403
 6394W        W13703  14.054   9.262   0.721
 6395W        W13704   8.006   7.802   6.799
 6396W        W13705  16.475   6.528   7.808
 6397W        W13706   0.312   9.805   9.132
 6398W        W13707   2.830   1.788   0.135
 6399W        W13708  11.088   6.357   9.614
 6400W        W13709   0.707   1.328   6.531
 6401W        W13710   5.408   2.485   6.736
 6402W        W13711   8.655   5.707   5.983
 6403W        W13712  10.482   1.644   9.028
 6404W        W13713  15.124   0.536   6.364
 6405W        W13714   4.735   3.115   7.551
 6406W        W13715  11.170   8.075   0.474
 6407W        W13716   2.753   7.087   6.307
 6408W        W13717   6.333   8.957   5.967
 6409W        W13718   0.633   3.125   7.002
 6410W        W13719  16.095   7.568   9.176
 6411W        W13720   1.432   7.022   6.822
 6412W        W13721   4.222   4.081   9.247
 6413W        W13722   0.534   0.562   7.811
 6414W        W13723   7.537   4.462   7.192
 6415W        W13724  15.960   0.994   6.195
 6416W        W13725  15.457   3.560   8.423
 6417W        W13726   6.697   2.930   0.007
 6418W        W13727  15.576   8.144   7.934
 6419W        W13728  13.035   3.621   9.878
 6420W        W13729   9.641   7.126   7.172
 6421W        W13730  19.918   5.508   7.095
 6422W        W13731  12.936   5.037   9.632
 6423W        W13732   2.116   9.198   6.307
 6424W        W13733   3.700   5.418   7.271
 6425W        W13734  19.117   1.054   0.257
 6426W        W13735   2.944   1.525   6.572
 6427W        W13736   3.351   9.334   7.802
 6428W        W13737   1.174   5.900   7.156
 6429W        W13738  12.970   7.189   7.655
 6430W        W13739   9.701   4.170   0.346
 6431W        W13740  10.681   8.244   9.789
 6432W        W13741  19.470   7.979   7.987
 6433W        W13742  18.249   2.087   8.701
 6434W        W13743  19.861   8.996   6.264
 6435W        W13744  18.790   1.679   7.155
 6436W        W13745   8.732   9.477   7.574
 6437W        W13746   6.236   8.433   6.688
 6438W        W13747   4.531   7.693   7.791
 6439W        W13748   3.525   4.057   7.527
 6440W        W13749   7.997   6.508   7.101
 6441W        W13750  11.770   0.125   7.253
 6442W        W13751  12.323   1.441   9.589
 6443W        W13752  10.236   5.979   8.320
 6444W        W13753   2.356   1.156   7.110
 6445W        W13754   0.768   6.867   9.868
 6446W        W13755   2.469   1.764   5.926
 6447W        W13756   0.642   7.180   9.358
 6448W        W13757   0.739   6.966   6.185
 6449W        W13758   1.000   3.453   8.824
 6450W        W13759   6.895   7.392   8.037
 6451W        W13760  14.378   3.461   0.127
 6452W        W13761   8.050   7.760   6.230
 6453W        W13762   3.774   1.753   7.475
 6454W        W13763  14.999   3.598   8.160
 6455W        W13764  16.674   1.611   7.221
 6456W        W13765   0.343   2.765   7.512
 6457W        W13766  18.872   6.950   0.342
 6458W        W13767  16.941   2.036   8.411
 6459W        W13768   6.586   7.022   9.912
 6460W        W13769   1.925   1.619   9.665
 6461W        W13770   0.074   1.253   0.646
 6462W        W13771  19.112   6.509   9.632
 6463W        W13772  16.260   1.413   6.189
 6464W        W13773   1.166   0.663   8.953
 6465W        W13774   5.550   9.725   8.696
 6466W        W13775  12.737   7.483   7.252
 6467W        W13776   8.972   9.326   8.535
 6468W        W13777   3.291   4.041   9.624
 6469W        W13778  18.261   5.762   9.254
 6470W        W13779   4.628   0.199   8.414
 6471W        W13780  13.547   0.533   8.794
 6472W        W13781   2.357   6.908   0.205
 6473W        W13782  13.799   0.641   6.402
 6474W        W13783   8.017   3.310   7.114
 6475W        W13784   4.045   5.484   0.291
 6476W        W13785   7.641   5.485   0.749
 6477W        W13786  17.769   8.189   9.439
 6478W        W13787  11.845   2.641   6.732
 6479W        W13788   1.725   6.655   9.711
 6480W        W13789   7.702   1.271   7.550
 6481W        W13790   7.712   1.326   8.650
 6482W        W13791   4.697   7.086   9.201
 6483W        W13792  10.183   8.884   9.342
 6484W        W13793  13.738   9.651   6.130
 6485W        W13794   6.356   8.377   0.204
 6486W        W13795  18.143   0.827   7.395
 6487W        W13796  14.371   7.097   7.344
 6488W        W13797   6.604   5.423   6.621
 6489W        W13798  13.129   2.814   6.233
 6490W        W13799  16.753   4.091   8.371
 6491W        W13800   9.914   1.883   7.452
 6492W        W13801   2.009   4.780   6.642
 6493W        W13802   3.852   4.688   0.742
 6494W        W13803   6.368   7.812   0.757
 6495W        W13804  10.256   8.846   7.358
 6496W        W13805  11.587   4.366   9.393
 6497W        W13806  16.890   9.953   9.361
 6498W        W13807   4.753   9.971   0.304
 6499W        W13808   7.857   1.096   9.308
 6500W        W13809   6.942   0.353   9.654
 6501W        W13810   0.329   1.076   6.288
 6502W        W13811   2.453   2.514   7.411
 6503W        W13812  15.413   0.047   6.987
 6504W        W13813   6.363   3.672   0.980
 6505W        W13814   6.765   4.952   8.197
 6506W        W13815  17.122   5.169   7.195
 6507W        W13816  14.888   0.301   0.258
 6508W        W13817  19.009   9.762   6.892
 6509W        W13818   1.744   1.917   8.968
 6510W        W13819  15.912   4.984   7.015
 6511W        W13820   2.924   1.131   9.321
 6512W        W13821   5.427   2.808   0.834
 6513W        W13822  15.299   7.133   0.474
 6514W        W13823   8.941   9.943   7.657
 6515W        W13824   7.865   9.423   0.060
 6516W        W13825   2.338   9.454   7.991
 6517W        W13826   5.178   4.934   0.961
 6518W        W13827  15.069   2.502   0.987
 6519W        W13828   0.992   6.360   9.261
 6520W        W13829   6.755   8.156   8.718
 6521W        W13830   7.211   7.648   0.298
 6522W        W13831  13.296   1.719   7.525
 6523W        W13832  11.285   9.832   9.691
 6524W        W13833  16.476   7.410   0.563
 6525W        W13834   4.873   3.203   9.839
 6526W        W13835   5.618   4.379   6.964
 6527W        W13836  16.821   5.500   8.914
 6528W        W13837   9.837   2.757   7.719
 6529W        W13838  10.963   0.895   0.412
 6530W        W13839  18.076   5.619   9.714
 6531W        W13840  13.894   9.270   8.681
 6532W        W13841  19.054   1.107   9.204
 6533W        W13842   9.798   4.792   8.940
 6534W        W13843   1.699   1.276   0.407
 6535W        W13844   0.248   8.012   7.976
 6536W        W13845  11.169   0.504   7.923
 6537W        W13846   6.461   5.914   7.962
 6538W        W13847   6.810   7.181   8.500
 6539W        W13848   1.643   5.381   9.405
 6540W        W13849  19.348   7.682   7.107
 6541W        W13850   1.136   2.102   6.788
 6542W        W13851  19.189   2.613   9.996
 6543W        W13852   7.202   7.335   8.802
 6544W        W13853  10.303   4.117   8.324
 6545W        W13854  12.414   0.711   0.631
 6546W        W13855   2.885   5.840   6.777
 6547W        W13856   0.580   4.882   6.942
 6548W        W13857   1.613   5.617   7.066
 6549W        W13858   5.807   9.691   9.174
 6550W        W13859   3.774   4.470   8.939
 6551W        W13860  19.462   9.309   6.319
 6552W        W13861   4.334   0.098   7.863
 6553W        W13862  15.345   5.876   9.584
 6554W        W13863   7.131   0.087   7.432
 6555W        W13864  18.674   3.360   6.850
 6556W        W13865  14.066   9.348   9.677
 6557W        W13866  19.848   0.833   6.686
 6558W        W13867  19.740   0.377   0.202
 6559W        W13868   2.121   6.624   6.426
 6560W        W13869  17.286   4.161   9.018
 6561W        W13870   7.607   4.912   7.512
 6562W        W13871  15.303   0.839   8.771
 6563W        W13872   2.311   1.186   7.624
 6564W        W13873   4.710   9.080   9.311
 6565W        W13874   8.490   0.544   9.875
 6566W        W13875  19.554   0.857   0.026
 6567W        W13876   0.381   3.667   0.465
 6568W        W13877  16.691   4.495   0.260
 6569W        W13878   1.322   3.236   9.177
 6570W        W13879   9.947   0.118   7.323
 6571W        W13880  16.835   2.159   9.973
 6572W        W13881   8.302   2.780   7.926
 6573W        W13882   5.915   2.399   6.798
 6574W        W13883  10.735   0.602   8.243
 6575W        W13884   1.940   6.352   7.767
 6576W        W13885   3.750   2.312   9.004
 6577W        W13886   7.977   9.182   8.229
 6578W        W13887   6.033   0.184   7.294
 6579W        W13888  18.273   4.090   9.931
 6580W        W13889   2.227   9.145   8.373
 6581W        W13890  14.119   7.744   7.963
 6582W        W13891   2.709   9.974   6.267
 6583W        W13892  17.174   0.419   0.034
 6584W        W13893   5.540   9.763   8.180
 6585W        W13894  18.494   8.420   7.591
 6586W        W13895  18.455   6.905   0.040
 6587W        W13896  14.718   8.823   7.289
 6588W        W13897  10.686   7.314   9.718
 6589W        W13898  17.885   7.405   7.642
 6590W        W13899   6.306   9.207   0.214
 6591W        W13900  15.269   0.288   8.944
 6592W        W13901   6.611   9.610   0.135
 6593W        W13902   6.338   9.686   0.997
 6594W        W13903   6.147   4.394   5.849
 6595W        W13904   4.197   9.123   9.385
 6596W        W13905   2.136   4.217   6.180
 6597W        W13906  19.154   2.576   9.451
 6598W        W13907  13.609   9.238   1.037
 6599W        W13908   4.111   4.958   0.057
 6600W        W13909   9.517   4.558   9.326
 6601W        W13910  14.073   2.784   7.893
 6602W        W13911  13.382   1.342   6.344
 6603W        W13912  18.704   3.929   7.332
 6604W        W13913  17.011   2.856   6.098
 6605W        W13914  18.863   6.003   8.341
 6606W        W13915   4.671   4.179   9.011
 6607W        W13916   5.017   9.199   0.839
 6608W        W13917  19.227   3.279   7.881
 6609W        W13918  15.618   0.626   9.127
 6610W        W13919   5.450   0.635   6.796
 6611W        W13920  11.191   2.063   6.125
 6612W        W13921   0.913   6.950   7.993
 6613W        W13922  10.240   3.660   8.577
 6614W        W13923  10.524   3.293   1.337
 6615W        W13924  13.327   5.512   1.033
 6616W        W13925   1.572   7.916   7.569
 6617W        W13926   3.796   1.562   9.737
 6618W        W13927   6.338   3.264   0.069
 6619W        W13928   8.109   0.340   8.698
 6620W        W13929  10.806   9.746   0.592
 6621W        W13930   8.383   7.410   5.848
 6622W        W13931  19.661   5.137   7.993
 6623W        W13932  15.434   0.777   8.262
 6624W        W13933  10.087   0.731   9.989
 6625W        W13934  19.644   2.943   7.076
 6626W        W13935   0.731   6.595   7.387
 6627W        W13936  15.633   9.490   8.251
 6628W        W13937   0.106   4.926   6.757
 6629W        W13938   0.327   0.808   0.780
 6630W        W13939  17.287   2.630   0.979
 6631W        W13940   5.689   8.917   0.176
 6632W        W13941  17.932   0.466   8.341
 6633W        W13942   3.719   5.500   5.740
 6634W        W13943   3.049   4.305   6.212
 6635W        W13944  19.603   2.672   9.156
 6636W        W13945  17.792   8.630   7.712
 6637W        W13946  12.253   4.060   9.188
 6638W        W13947   4.532   3.701   8.762
 6639W        W13948  19.611   4.798   6.387
 6640W        W13949  18.405   5.808   8.352
 6641W        W13950  19.275   7.387   8.784
 6642W        W13951  12.797   5.662   8.857
 6643W        W13952  11.011   4.621   8.374
 6644W        W13953  10.436   9.172   7.916
 6645W        W13954   2.378   7.512   9.724
 6646W        W13955   8.154   4.206   6.544
 6647W        W13956   8.472   7.843   1.047
 6648W        W13957  13.142   4.243   8.628
 6649W        W13958  18.081   6.013   8.843
 6650W        W13959   4.142   9.465   9.792
 6651W        W13960  12.167   8.443   9.295
 6652W        W13961  16.174   0.947   7.808
 6653W        W13962  15.883   4.587   6.598
 6654W        W13963   9.144   6.547   0.666
 6655W        W13964  15.415   8.117   6.044
 6656W        W13965   9.976   1.364   7.536
 6657W        W13966  17.002   6.706   8.563
 6658W        W13967  17.455   5.998   8.504
 6659W        W13968  12.923   9.033   8.908
 6660W        W13969  14.031   7.351   0.226
 6661W        W13970   9.981   2.256   7.869
 6662W        W13971  14.110   8.919   7.398
 6663W        W13972   7.752   0.564   6.955
 6664W        W13973  11.487   4.659   6.345
 6665W        W13974  10.561   1.684   9.546
 6666W        W13975   6.426   4.557   7.572
 6667W        W13976  15.541   5.084   0.091
 6668W        W13977  17.748   2.162   0.000
 6669W        W13978  13.165   8.899   6.416
 6670W        W13979  13.934   0.240   9.736
 6671W        W13980   8.884   5.448   0.238
 6672W        W13981   8.891   2.772   8.772
 6673W        W13982  16.724   8.856   6.720
 6674W        W13983  10.437   7.226   8.863
 6675W        W13984  14.250   6.889   8.306
 6676W        W13985   3.894   5.073   6.590
 6677W        W13986   2.488   4.654   8.105
 6678W        W13987  12.482   2.087   8.436
 6679W        W13988   7.314   4.977   9.806
 6680W        W13989   6.729   5.578   8.914
 6681W        W13990   5.127   2.207   8.711
 6682W        W13991  13.345   8.751   8.672
 6683W        W13992   4.870   6.999   7.355
 6684W        W13993   5.086   0.453   8.291
 6685W        W13994  12.250   2.237   6.096
 6686W        W13995   8.099   5.723   0.649
 6687W        W13996  17.583   4.577   0.185
 6688W        W13997  17.343   7.412   7.900
 6689W        W13998   2.441   8.386   8.820
 6690W        W13999   6.506   7.922   9.970
 6691W        W14000   7.139   1.135   7.454
 6692W        W14001   0.512   7.477   6.890
 6693W        W14002  11.576   0.774   6.172
 6694W        W14003  13.859   9.684   0.479
 6695W        W14004  12.719   4.334   7.432
 6696W        W14005   4.218   2.314   8.777
 6697W        W14006  11.235   8.796   9.318
 6698W        W14007  19.795   3.000   6.595
 6699W        W14008   3.622   9.724   8.168
 6700W        W14009   3.321   1.082   8.554
 6701W        W14010   5.751   6.663   7.686
 6702W        W14011  13.224   5.561   6.116
 6703W        W14012   9.685   6.751   7.996
 6704W        W14013  13.415   0.845   6.109
 6705W        W14014  15.215   8.659   7.147
 6706W        W14015  17.929   4.044   6.799
 6707W        W14016   1.440   9.376   8.876
 6708W        W14017   6.010   3.933   0.215
 6709W        W14018   2.156   4.724   6.148
 6710W        W14019  18.086   5.340   0.137
 6711W        W14020  11.630   3.707   7.770
 6712W        W14021  16.321   4.923   7.748
 6713W        W14022   0.396   4.130   0.252
 6714W        W14023   2.367   8.858   7.239
 6715W        W14024   3.473   7.480   8.686
 6716W        W14025   6.788   1.220   7.817
 6717W        W14026  18.841   4.659   0.894
 6718W        W14027  14.661   5.430   9.157
 6719W        W14028   7.041   9.275   7.180
 6720W        W14029   3.903   0.127   6.572
 6721W        W14030   5.025   2.820   6.985
 6722W        W14031   9.011   7.633   8.733
 6723W        W14032  11.552   2.202   6.499
 6724W        W14033  12.700   6.670   7.037
 6725W        W14034  10.264   4.930   8.745
 6726W        W14035   0.293   6.880   9.138
 6727W        W14036  13.556   1.450   9.298
 6728W        W14037  14.882   7.248   9.610
 6729W        W14038   9.944   8.697   8.916
 6730W        W14039   7.813   7.104   0.986
 6731W        W14040  18.421   7.055   6.145
 6732W        W14041  14.964   4.919   7.517
 6733W        W14042  17.976   1.330   7.446
 6734W        W14043  19.495   4.112   8.027
 6735W        W14044   8.587   7.297   8.921
 6736W        W14045   8.883   0.320   0.769
 6737W        W14046   8.795   2.812   8.059
 6738W        W14047  13.633   2.725   6.232
 6739W        W14048  13.188   8.424   0.125
 6740W        W14049   4.670   9.701   6.117
 6741W        W14050  10.820   2.461   9.855
 6742W        W14051   9.473   6.696   6.965
 6743W        W14052   9.573   5.842   6.840
 6744W        W14053   8.805   8.209   9.415
 6745W        W14054  12.533   3.454   8.131
 6746W        W14055  18.277   1.569   5.936
 6747W        W14056  17.770   3.564   8.829
 6748W        W14057  11.431   1.683   8.549
 6749W        W14058  12.446   4.677   6.627
 6750W        W14059   3.799   9.315   8.414
 6751W        W14060   7.624   1.486   6.968
 6752W        W14061   5.213   1.639   0.420
 6753W        W14062  13.935   5.536   6.750
 6754W        W14063  17.307   6.438   7.254
 6755W        W14064  14.404   8.970   9.683
 6756W        W14065   6.154   3.744   6.447
 6757W        W14066   8.000   9.898   9.938
 6758W        W14067  12.590   8.860   7.568
 6759W        W14068   3.501   0.579   0.181
 6760W        W14069   9.171   9.596   8.973
 6761W        W14070   4.627   6.396   6.700
 6762W        W14071   1.874   8.107   7.978
 6763W        W14072  14.499   9.274   0.971
 6764W        W14073  11.614   4.598   7.817
 6765W        W14074   4.114   9.905   8.265
 6766W        W14075   7.559   8.323   0.399
 6767W        W14076  15.703   8.951   8.245
 6768W        W14077   9.120   5.624   6.850
 6769W        W14078  14.522   3.299   6.498
 6770W        W14079  13.398   0.904   6.614
 6771W        W14080  15.622   9.785   0.656
 6772W        W14081  15.502   3.599   7.908
 6773W        W14082   3.634   0.154   9.936
 6774W        W14083  13.261   2.306   9.234
 6775W        W14084  17.750   5.631   9.322
 6776W        W14085   3.024   5.057   0.832
 6777W        W14086  17.305   8.021   7.337
 6778W        W14087   0.908   3.140   8.436
 6779W        W14088   1.842   3.545   8.602
 6780W        W14089  19.351   6.876   0.545
 6781W        W14090  12.178   5.140   6.818
 6782W        W14091   9.033   4.082   6.217
 6783W        W14092  13.418   8.812   9.866
 6784W        W14093   3.506   4.573   6.205
 6785W        W14094   3.804   8.249   7.054
 6786W        W14095  10.247   2.866   0.267
 6787W        W14096   1.576   7.274   0.813
 6788W        W14097  15.544   2.346   8.988
 6789W        W14098   7.654   6.832   6.601
 6790W        W14099   1.357   6.734   9.260
 6791W        W14100   3.354   0.747   6.218
 6792W        W14101  13.349   6.797   9.308
 6793W        W14102   0.151   2.798   0.462
 6794W        W14103  10.437   7.562   6.897
 6795W        W14104   8.551   1.160   7.274
 6796W        W14105  15.870   0.259   9.392
 6797W        W14106   6.407   3.261   6.531
 6798W        W14107   9.028   9.072   0.575
 6799W        W14108  12.675   9.750   8.619
 6800W        W14109   0.829   2.680   7.180
 6801W        W14110  12.842   5.658   7.535
 6802W        W14111   0.242   8.204   0.178
 6803W        W14112   2.571   8.472   7.550
 6804W        W14113  12.554   5.805   0.748
 6805W        W14114   7.096   9.586   0.297
 6806W        W14115   2.727   3.702   7.226
 6807W        W14116   0.773   9.629   7.533
 6808W        W14117   7.445   9.225   9.096
 6809W        W14118  15.575   6.414   8.075
 6810W        W14119   2.772   5.902   0.105
 6811W        W14120   2.641   4.573   6.734
 6812W        W14121  17.767   5.881   7.247
 6813W        W14122  12.787   7.592   0.755
 6814W        W14123  19.682   0.740   8.342
 6815W        W14124   3.817   9.775   8.657
 6816W        W14125  16.467   4.459   8.600
 6817W        W14126  13.684   4.934   6.282
 6818W        W14127  18.730   4.182   7.775
 6819W        W14128   3.894   7.460   0.704
 6820W        W14129  13.082   9.891   8.349
 6821W        W14130   2.358   2.994   7.527
 6822W        W14131  16.395   1.279   9.226
 6823W        W14132  14.243   6.660   9.584
 6824W        W14133  17.027   6.107   9.350
 6825W        W14134  12.984   1.240   6.720
 6826W        W14135  10.331   8.676   7.969
 6827W        W14136   0.612   7.214   8.815
 6828W        W14137   7.866   1.419   8.016
 6829W        W14138   5.608   6.412   6.226
 6830W        W14139   2.695   3.665   6.698
 6831W        W14140   0.411   5.055   0.219
 6832W        W14141  16.198   9.925   8.876
 6833W        W14142   1.428   6.095   6.363
 6834W        W14143   2.647   4.585   8.987
 6835W        W14144  10.143   5.556   7.068
 6836W        W14145  13.807   1.007   7.024
 6837W        W14146   5.379   3.160   8.807
 6838W        W14147   1.556   6.457   8.463
 6839W        W14148  18.220   1.217   9.224
 6840W        W14149  11.236   5.153   0.941
 6841W        W14150  18.601   3.377   7.353
 6842W        W14151  10.269   1.532   8.415
 6843W        W14152   7.047   8.941   0.776
 6844W        W14153   0.193   9.287   0.973
 6845W        W14154   8.096   5.879   9.247
 6846W        W14155   1.188   0.459   0.732
 6847W        W14156  12.415   9.335   8.811
 6848W        W14157   6.121   8.757   9.925
 6849W        W14158   9.466   6.958   8.924
 6850W        W14159   0.714   4.548   9.277
 6851W        W14160  10.473   4.907   7.631
 6852W        W14161  13.240   6.358   7.977
 6853W        W14162  16.220   9.938   9.806
 6854W        W14163   3.906   5.942   8.104
 6855W        W14164   0.789   6.773   9.026
 6856W        W14165  12.627   8.944   7.056
 6857W        W14166  11.812   1.380   7.843
 6858W        W14167   3.972   1.241   0.544
 6859W        W14168  17.814   2.284   7.415
 6860W        W14169  18.790   8.775   0.635
 6861W        W14170   6.457   1.119   9.595
 6862W        W14171   1.327   0.217   6.466
 6863W        W14172  17.829   5.944   0.388
 6864W        W14173   8.265   3.018   9.234
 6865W        W14174  18.270   8.575   8.021
 6866W        W14175   5.028   2.050   0.160
 6867W        W14176  19.221   7.672   7.620
 6868W        W14177   1.793   3.141   0.856
 6869W        W14178  11.499   0.735   0.256
 6870W        W14179   2.769   2.191   8.860
 6871W        W14180   8.883   6.115   0.744
 6872W        W14181  12.963   6.589   0.657
 6873W        W14182   8.404   3.431   6.394
 6874W        W14183   5.561   8.113   0.556
 6875W        W14184   5.768   7.604   0.598
 6876W        W14185  15.947   5.819   7.497
 6877W        W14186   1.994   0.438   8.131
 6878W        W14187  16.948   5.674   7.514
 6879W        W14188  13.303   1.790   8.487
 6880W        W14189  13.972   0.143   0.236
 6881W        W14190   5.678   3.980   7.289
 6882W        W14191  14.813   1.279   0.354
 6883W        W14192   7.572   7.872   7.583
 6884W        W14193   3.961   3.790   0.626
 6885W        W14194   4.993   6.729   9.402
 6886W        W14195   3.762   2.552   0.340
 6887W        W14196  19.659   7.448   0.570
 6888W        W14197  13.428   7.231   6.866
 6889W        W14198  19.207   5.052   7.763
 6890W        W14199  12.360   1.345   0.371
 6891W        W14200  17.577   3.675   6.641
 6892W        W14201   8.100   8.266   8.261
 6893W        W14202   5.061   5.458   0.326
 6894W        W14203  15.917   4.197   5.865
 6895W        W14204  14.170   0.736   6.767
 6896W        W14205   6.406   0.206   8.493
 6897W        W14206  17.100   5.214   7.693
 6898W        W14207   9.111   5.295   8.080
 6899W        W14208   3.746   0.248   8.436
 6900W        W14209   8.095   7.763   8.363
 6901W        W14210  19.713   3.144   9.457
 6902W        W14211  17.708   2.171   0.507
 6903W        W14212   6.215   7.952   7.875
 6904W        W14213  17.476   0.849   9.980
 6905W        W14214  14.462   0.810   9.202
 6906W        W14215   7.249   4.686   8.882
 6907W        W14216   1.216   4.455   6.945
 6908W        W14217  11.539   4.282   0.807
 6909W        W14218  11.847   7.514   7.044
 6910W        W14219   0.991   0.144   6.062
 6911W        W14220  16.932   2.990   9.432
 6912W        W14221   8.222   8.240   9.629
 6913W        W14222  15.391   5.455   7.885
 6914W        W14223   5.396   7.385   9.856
 6915W        W14224   0.420   5.471   8.534
 6916W        W14225  15.712   7.983   6.826
 6917W        W14226   9.772   3.472   8.589
 6918W        W14227   7.112   2.534   8.152
 6919W        W14228   1.196   5.303   6.969
 6920W        W14229   5.600   8.651   9.233
 6921W        W14230  10.269   3.378   0.234
 6922W        W14231   3.125   9.279   7.312
 6923W        W14232   3.772   2.166   6.990
 6924W        W14233   5.740   7.428   6.993
 6925W        W14234  16.897   6.652   6.482
 6926W        W14235   0.291   4.394   7.492
 6927W        W14236   7.180   5.239   0.767
 6928W        W14237  19.067   8.658   8.654
 6929W        W14238  18.799   6.489   8.521
 6930W        W14239   2.150   8.157   7.530
 6931W        W14240   8.869   5.949   9.921
 6932W        W14241  16.511   7.220   9.800
 6933W        W14242   5.159   6.919   9.841
 6934W        W14243  11.118   7.281   6.657
 6935W        W14244  16.050   2.270   8.284
 6936W        W14245   6.746   2.512   6.810
 6937W        W14246   3.984   1.443   7.030
 6938W        W14247   1.942   8.714   8.379
 6939W        W14248   6.366   2.525   8.382
 6940W        W14249  14.274   3.204   8.771
 6941W        W14250  13.923   9.733   8.943
 6942W        W14251   9.908   0.249   6.288
 6943W        W14252   1.204   1.235   0.624
 6944W        W14253   1.084   0.158   6.911
 6945W        W14254  11.965   5.924   6.180
 6946W        W14255  18.446   5.106   9.700
 6947W        W14256   1.759   3.814   7.726
 6948W        W14257  13.266   3.079   7.909
 6949W        W14258   3.790   0.486   6.223
 6950W        W14259  13.428   0.108   0.782
 6951W        W14260   1.222   1.903   8.983
 6952W        W14261   8.405   9.186   9.225
 6953W        W14262   8.043   7.048   0.180
 6954W        W14263   0.464   3.721   6.242
 6955W        W14264   9.368   3.153   0.150
 6956W        W14265   6.616   3.017   0.508
 6957W        W14266   0.771   6.631   6.604
 6958W        W14267   9.797   2.624   8.210
 6959W        W14268   1.119   1.189   6.848
 6960W        W14269   9.960   2.236   0.959
 6961W        W14270   8.779   2.164   7.461
 6962W        W14271   6.153   0.497   1.058
 6963W        W14272  15.893   2.419   0.591
 6964W        W14273  13.631   6.348   9.264
 6965W        W14274  19.821   8.471   6.211
 6966W        W14275  18.777   7.428   9.570
 6967W        W14276   8.227   5.556   8.873
 6968W        W14277   2.142   4.503   9.191
 6969W        W14278  10.961   3.694   0.706
 6970W        W14279  15.254   2.772   6.355
 6971W        W14280   2.153   4.206   1.011
 6972W        W14281  13.506   7.196   7.893
 6973W        W14282  15.396   5.707   8.737
 6974W        W14283   2.235   8.495   7.963
 6975W        W14284   5.866   5.430   0.766
 6976W        W14285  13.095   0.374   8.619
 6977W        W14286  12.354   3.043   7.840
 6978W        W14287   7.468   9.738   9.262
 6979W        W14288   2.925   0.710   7.934
 6980W        W14289   0.619   1.680   0.895
 6981W        W14290  17.842   6.531   8.000
 6982W        W14291  17.645   9.802   0.694
 6983W        W14292  19.142   3.532   9.163
 6984W        W14293  11.601   6.905   1.044
 6985W        W14294  11.334   5.699   9.252
 6986W        W14295   2.905   7.488   9.717
 6987W        W14296   0.760   0.745   9.836
 6988W        W14297  14.125   6.054   9.616
 6989W        W14298   2.578   0.060   7.028
 6990W        W14299  11.666   1.131   9.772
 6991W        W14300  10.967   9.642   9.328
 6992W        W14301  15.153   1.647   0.427
 6993W        W14302   7.454   0.368   9.887
 6994W        W14303  14.691   1.653   6.138
 6995W        W14304  19.183   6.775   8.155
 6996W        W14305   5.571   9.263   8.044
 6997W        W14306  13.453   9.200   7.863
 6998W        W14307   1.316   4.046   0.169
 6999W        W14308   7.174   5.759   0.722
 7000W        W14309  11.488   9.546   7.122
 7001W        W14310   3.984   0.415   0.232
 7002W        W14311  19.715   6.539   0.742
 7003W        W14312  15.444   5.818   7.296
 7004W        W14313   9.914   0.028   0.618
 7005W        W14314   2.236   9.205   9.210
 7006W        W14315  11.546   9.431   8.837
 7007W        W14316  14.533   0.342   6.915
 7008W        W14317  15.901   9.250   9.253
 7009W        W14318   7.224   0.860   9.883
 7010W        W14319  12.638   1.032   9.483
 7011W        W14320   0.515   2.509   7.948
 7012W        W14321   4.410   0.246   6.492
 7013W        W14322  14.991   9.411   9.720
 7014W        W14323  13.940   0.638   8.459
 7015W        W14324  19.783   9.565   9.030
 7016W        W14325   9.718   6.250   7.094
 7017W        W14326  16.624   4.446   9.660
 7018W        W14327  17.480   3.488   8.408
 7019W        W14328   2.553   4.293   8.509
 7020W        W14329  16.101   0.909   9.835
 7021W        W14330   1.102   3.657   9.897
 7022W        W14331   4.730   1.040   7.793
 7023W        W14332  12.746   6.414   7.993
 7024W        W14333  13.063   7.223   9.339
 7025W        W14334  11.927   5.211   0.611
 7026W        W14335  10.311   2.871   6.632
 7027W        W14336  14.770   3.215   0.536
 7028W        W14337  15.031   3.278   6.294
 7029W        W14338  13.170   5.060   6.949
 7030W        W14339  17.651   3.290   7.398
 7031W        W14340   5.921   2.028   7.740
 7032W        W14341  13.489   1.884   8.998
 7033W        W14342  14.415   6.361   6.741
 7034W        W14343   4.129   6.881   7.807
 7035W        W14344  13.536   4.424   0.725
 7036W        W14345  12.422   4.701   6.110
 7037W        W14346   7.229   1.866   6.758
 7038W        W14347   9.899   5.536   6.620
 7039W        W14348  14.190   2.080   8.272
 7040W        W14349   2.125   4.281   8.208
 7041W        W14350  19.108   7.245   7.013
 7042W        W14351   4.620   3.047   9.411
 7043W        W14352   9.253   5.866   6.410
 7044W        W14353   7.920   7.379   0.548
 7045W        W14354   7.486   0.979   8.964
 7046W        W14355   3.608   7.044   0.635
 7047W        W14356   1.845   7.824   8.449
 7048W        W14357  12.941   6.319   6.702
 7049W        W14358   5.596   9.251   8.544
 7050W        W14359  12.029   0.148   9.851
 7051W        W14360  15.887   6.820   1.080
 7052W        W14361  13.277   6.001   8.391
 7053W        W14362  14.557   6.404   8.268
 7054W        W14363  18.755   4.437   7.301
 7055W        W14364  17.285   6.864   9.588
 7056W        W14365  16.597   0.164   8.270
 7057W        W14366  13.798   8.854   9.469
 7058W        W14367   5.348   5.384   0.751
 7059W        W14368  16.291   8.355   9.752
 7060W        W14369  15.415   8.492   9.386
 7061W        W14370  18.614   3.675   7.791
 7062W        W14371   6.025   1.857   9.379
 7063W        W14372  13.853   1.470   6.110
 7064W        W14373   7.884   0.058   6.943
 7065W        W14374  10.200   1.358   9.379
 7066W        W14375  12.232   6.235   8.747
 7067W        W14376   1.218   0.739   7.961
 7068W        W14377   8.353   8.619   9.963
 7069W        W14378   7.727   4.634   7.994
 7070W        W14379   6.937   3.281   6.548
 7071W        W14380   2.158   9.728   9.924
 7072W        W14381   6.985   2.783   7.231
 7073W        W14382   1.839   3.633   7.246
 7074W        W14383  17.235   2.854   6.977
 7075W        W14384   5.698   1.579   8.428
 7076W        W14385  13.462   6.220   7.486
 7077W        W14386  14.407   5.931   9.181
 7078W        W14387   5.878   6.609   0.286
 7079W        W14388   3.604   1.266   7.318
 7080W        W14389  11.619   5.979   0.997
 7081W        W14390   3.840   8.852   9.117
 7082W        W14391  14.784   9.444   6.563
 7083W        W14392  12.130   1.077   8.114
 7084W        W14393  18.465   0.722   7.006
 7085W        W14394   8.922   9.155   9.061
 7086W        W14395   1.465   3.662   8.929
 7087W        W14396   0.050   7.593   9.825
 7088W        W14397  11.381   5.622   7.336
 7089W        W14398   4.666   8.686   9.629
 7090W        W14399   4.888   4.027   7.937
 7091W        W14400  17.043   7.882   6.905
 7092W        W14401   5.322   5.198   6.867
 7093W        W14402  14.063   2.017   0.325
 7094W        W14403  12.512   0.867   0.153
 7095W        W14404  10.557   5.561   8.388
 7096W        W14405   5.873   5.334   7.209
 7097W        W14406  16.574   7.586   6.156
 7098W        W14407  13.610   2.239   6.435
 7099W        W14408   6.007   8.004   9.950
 7100W        W14409  17.555   1.136   7.227
 7101W        W14410  11.186   9.027   6.847
 7102W        W14411   6.134   8.781   0.433
 7103W        W14412  11.994   3.487   8.196
 7104W        W14413  16.680   8.752   0.227
 7105W        W14414  13.905   1.192   0.984
 7106W        W14415  14.853   7.164   6.766
 7107W        W14416  15.899   7.321   0.639
 7108W        W14417   4.858   7.407   0.761
 7109W        W14418   3.355   3.182   9.717
 7110W        W14419  15.718   6.404   8.989
 7111W        W14420  15.723   7.692   9.876
 7112W        W14421  13.871   1.165   6.529
 7113W        W14422   5.160   2.768   7.486
 7114W        W14423   9.367   3.685   6.154
 7115W        W14424   2.715   1.614   9.182
 7116W        W14425   7.281   9.241   7.728
 7117W        W14426  14.078   2.470   6.271
 7118W        W14427   8.105   8.609   6.563
 7119W        W14428  17.872   7.766   9.130
 7120W        W14429   3.899   7.656   8.397
 7121W        W14430  16.009   6.859   0.178
 7122W        W14431  12.291   7.352   8.977
 7123W        W14432  12.762   2.964   8.138
 7124W        W14433  10.792   6.907   6.494
 7125W        W14434   6.836   9.687   6.926
 7126W        W14435  11.144   8.355   8.056
 7127W        W14436  12.114   1.025   7.571
 7128W        W14437  15.787   7.765   0.397
 7129W        W14438  15.781   3.987   8.469
 7130W        W14439  17.712   7.307   6.676
 7131W        W14440   0.041   6.383   6.608
 7132W        W14441   5.659   6.181   7.881
 7133W        W14442  15.683   3.093   8.464
 7134W        W14443  18.324   0.784   8.419
 7135W        W14444  16.217   5.539   0.615
 7136W        W14445   6.332   2.222   6.448
 7137W        W14446  18.378   3.404   0.610
 7138W        W14447  15.429   4.937   7.262
 7139W        W14448  12.305   1.662   0.852
 7140W        W14449   0.868   5.302   0.293
 7141W        W14450   5.141   7.505   0.314
 7142W        W14451  17.777   5.451   0.535
 7143W        W14452  19.877   9.360   7.799
 7144W        W14453   3.278   5.045   0.394
 7145W        W14454   6.638   8.093   7.580
 7146W        W14455   2.600   3.102   7.077
 7147W        W14456   3.047   9.263   6.725
 7148W        W14457   4.165   0.341   9.173
 7149W        W14458   6.187   0.967   0.837
 7150W        W14459  14.599   7.215   6.319
 7151W        W14460   7.521   2.674   9.824
 7152W        W14461   5.826   7.714   8.648
 7153W        W14462  16.782   2.572   9.683
 7154W        W14463   9.985   4.075   7.924
 7155W        W14464   5.093   4.546   6.310
 7156W        W14465   8.683   0.532   8.010
 7157W        W14466   2.646   6.870   8.013
 7158W        W14467   2.037   3.274   6.222
 7159W        W14468  15.716   2.687   6.164
 7160W        W14469   0.105   1.646   0.976
 7161W        W14470   8.944   3.540   8.134
 7162W        W14471   6.464   9.257   8.804
 7163W        W14472   8.512   2.528   6.938
 7164W        W14473   5.196   4.134   7.260
 7165W        W14474   0.029   1.845   0.043
 7166W        W14475   0.287   8.220   6.088
 7167W        W14476  16.680   0.425   9.283
 7168W        W14477  19.095   0.256   9.267
 7169W        W14478   0.036   6.452   9.974
 7170W        W14479   1.197   5.691   0.326
 7171W        W14480  18.282   4.642   7.445
 7172W        W14481  16.250   1.716   9.456
 7173W        W14482  12.912   8.008   9.474
 7174W        W14483   8.231   6.960   0.698
 7175W        W14484   4.758   5.769   9.173
 7176W        W14485  10.489   0.361   9.116
 7177W        W14486  19.128   3.007   8.302
 7178W        W14487  14.939   0.065   6.239
 7179W        W14488   5.027   0.594   7.782
 7180W        W14489   9.460   0.240   8.444
 7181W        W14490  14.227   8.096   6.033
 7182W        W14491  15.163   9.605   0.671
 7183W        W14492  11.586   9.855   6.275
 7184W        W14493   1.289   0.792   6.055
 7185W        W14494  16.339   0.206   0.253
 7186W        W14495  19.979   2.467   9.448
 7187W        W14496   3.834   9.265   7.919
 7188W        W14497  13.154   7.433   0.366
 7189W        W14498  18.783   7.177   7.384
 7190W        W14499   3.115   6.143   5.982
 7191W        W14500   9.982   6.055   9.117
 7192W        W14501   4.572   4.551   0.281
 7193W        W14502  16.893   2.692   6.603
 7194W        W14503  12.574   4.495   9.600
 7195W        W14504   7.056   9.542   8.989
 7196W        W14505  11.332   8.774   8.336
 7197W        W14506   6.537   6.059   8.982
 7198W        W14507   7.551   8.222   8.552
 7199W        W14508  14.589   4.138   6.555
 7200W        W14509   1.859   7.856   9.304
 7201W        W14510   7.086   5.975   9.688
 7202W        W14511   2.107   8.259   6.998
 7203W        W14512  11.556   9.655   9.298
 7204W        W14513  15.354   1.186   0.315
 7205W        W14514  17.850   9.229   6.831
 7206W        W14515  14.795   6.462   0.634
 7207W        W14516  17.968   4.751   9.406
 7208W        W14517  15.802   5.391   8.831
 7209W        W14518  18.895   9.961   6.427
 7210W        W14519   3.722   7.274   9.361
 7211W        W14520   4.662   9.281   7.866
 7212W        W14521   2.927   4.980   6.926
 7213W        W14522  17.776   1.250   9.493
 7214W        W14523  11.199   6.185   9.071
 7215W        W14524   6.703   5.655   0.905
 7216W        W14525   2.582   8.420   7.037
 7217W        W14526  19.971   0.828   0.364
 7218W        W14527  18.768   7.961   8.487
 7219W        W14528   4.773   8.743   0.832
 7220W        W14529   1.775   1.212   7.784
 7221W        W14530  17.825   0.035   8.069
 7222W        W14531   4.198   6.467   8.922
 7223W        W14532   0.898   7.136   6.695
 7224W        W14533   4.759   6.076   7.542
 7225W        W14534   5.375   6.267   8.334
 7226W        W14535  14.838   1.189   6.300
 7227W        W14536  17.922   1.854   6.670
 7228W        W14537  11.510   7.754   9.141
 7229W        W14538   4.618   5.610   7.286
 7230W        W14539   5.161   2.731   8.011
 7231W        W14540   7.588   2.521   9.331
 7232W        W14541  10.747   2.083   9.024
 7233W        W14542  15.635   5.355   7.461
 7234W        W14543  11.971   0.804   6.494
 7235W        W14544  13.937   3.583   0.392
 7236W        W14545   1.125   9.323   6.369
 7237W        W14546   5.396   2.494   6.159
 7238W        W14547  11.637   9.740   7.567
 7239W        W14548   4.536   8.305   0.892
 7240W        W14549  10.517   1.718   0.057
 7241W        W14550  14.407   0.340   8.451
 7242W        W14551   1.665   9.230   0.768
 7243W        W14552  12.659   9.089   0.292
 7244W        W14553  19.558   2.689   8.146
 7245W        W14554   5.105   9.924   6.216
 7246W        W14555  18.144   6.498   7.313
 7247W        W14556  10.896   7.740   6.723
 7248W        W14557  19.986   6.494   5.941
 7249W        W14558   9.329   4.985   8.461
 7250W        W14559  16.754   4.365   9.143
 7251W        W14560   4.043   3.623   0.119
 7252W        W14561   9.390   4.650   6.991
 7253W        W14562  16.809   7.914   7.375
 7254W        W14563  14.752   9.847   0.504
 7255W        W14564  18.944   1.230   6.932
 7256W        W14565   1.815   9.406   0.234
 7257W        W14566   7.136   0.904   0.405
 7258W        W14567  17.286   6.890   6.993
 7259W        W14568   5.846   4.478   0.870
 7260W        W14569  10.987   9.675   8.080
 7261W        W14570  18.538   3.508   0.044
 7262W        W14571  16.768   3.425   0.576
 7263W        W14572  18.162   3.153   6.746
 7264W        W14573  19.631   7.249   6.894
 7265W        W14574   5.464   0.769   7.953
 7266W        W14575  13.389   9.668   9.718
 7267W        W14576  10.892   7.399   7.135
 7268W        W14577  16.572   2.680   7.863
 7269W        W14578  12.775   1.831   0.934
 7270W        W14579  19.216   7.339   0.328
 7271W        W14580  13.063   9.801   6.852
 7272W        W14581   6.780   7.571   0.574
 7273W        W14582   8.035   1.304   9.754
 7274W        W14583  16.115   0.274   8.070
 7275W        W14584   5.359   9.232   0.437
 7276W        W14585  15.897   3.132   6.402
 7277W        W14586  18.657   2.197   0.023
 7278W        W14587  16.027   5.634   6.594
 7279W        W14588  11.814   9.950   8.275
 7280W        W14589  12.535   6.864   0.735
 7281W        W14590   5.097   3.666   9.806
 7282W        W14591   1.569   7.433   0.217
 7283W        W14592   7.608   5.442   9.797
 7284W        W14593  13.195   5.140   8.260
 7285W        W14594  14.350   5.915   7.444
 7286W        W14595   2.046   5.541   9.692
 7287W        W14596   2.268   2.314   0.855
 7288W        W14597   1.898   1.159   9.356
 7289W        W14598   4.763   1.158   5.813
 7290W        W14599  11.562   0.326   5.954
 7291W        W14600   3.471   0.198   7.565
 7292W        W14601  17.092   5.956   8.851
 7293W        W14602  13.464   1.367   8.228
 7294W        W14603   0.895   6.328   8.755
 7295W        W14604   7.450   8.992   9.588
 7296W        W14605  12.469   4.724   7.129
 7297W        W14606  18.802   0.903   6.134
 7298W        W14607  17.395   2.116   7.657
 7299W        W14608  17.365   1.679   7.919
 7300W        W14609  19.278   9.623   0.615
 7301W        W14610  13.467   0.817   8.043
 7302W        W14611   2.099   7.653   8.039
 7303W        W14612   0.944   4.996   9.203
 7304W        W14613  16.544   7.597   9.466
 7305W        W14614   8.853   4.225   0.971
 7306W        W14615   9.411   5.968   9.940
 7307W        W14616  18.480   5.617   6.472
 7308W        W14617  12.258   4.683   1.423
 7309W        W14618   5.730   8.869   7.174
 7310W        W14619  14.246   2.492   9.267
 7311W        W14620   9.390   3.030   0.673
 7312W        W14621   2.285   2.500   9.199
 7313W        W14622  15.049   7.417   7.515
 7314W        W14623  13.873   7.437   9.730
 7315W        W14624  16.330   4.580   0.955
 7316W        W14625  18.383   4.917   0.183
 7317W        W14626  17.661   2.250   1.007
 7318W        W14627  18.287   7.852   5.978
 7319W        W14628  13.937   3.615   9.866
 7320W        W14629  12.315   2.302   9.294
 7321W        W14630   2.874   4.992   9.225
 7322W        W14631   5.760   7.355   6.393
 7323W        W14632  11.134   6.259   0.134
 7324W        W14633  12.553   3.632   9.641
 7325W        W14634   9.384   7.184   6.726
 7326W        W14635   1.242   4.995   8.754
 7327W        W14636  10.499   2.705   7.091
 7328W        W14637   0.815   5.323   8.825
 7329W        W14638  13.895   9.320   7.634
 7330W        W14639   7.499   0.679   0.709
 7331W        W14640   5.258   7.781   0.771
 7332W        W14641   3.434   1.174   9.576
 7333W        W14642   1.379   8.888   6.292
 7334W        W14643  11.690   6.025   8.981
 7335W        W14644  13.188   4.043   9.097
 7336W        W14645   7.617   9.646   8.794
 7337W        W14646   3.381   6.846   8.498
 7338W        W14647  13.455   9.462   6.871
 7339W        W14648  16.085   5.776   8.017
 7340W        W14649   0.710   5.310   7.189
 7341W        W14650   3.886   3.270   7.571
 7342W        W14651   5.578   5.558   9.387
 7343W        W14652   9.216   4.661   9.748
 7344W        W14653   7.149   2.313   7.091
 7345W        W14654   8.231   3.987   9.271
 7346W        W14655  16.241   3.467   9.887
 7347W        W14656   5.046   1.990   6.804
 7348W        W14657  18.825   8.915   8.285
 7349W        W14658   1.188   9.253   0.350
 7350W        W14659  14.067   7.400   8.420
 7351W        W14660   8.938   2.202   8.372
 7352W        W14661   1.003   0.278   8.647
 7353W        W14662  10.899   5.697   7.600
 7354W        W14663   8.242   9.506   9.683
 7355W        W14664  19.062   9.568   0.138
 7356W        W14665   9.130   1.771   0.403
 7357W        W14666   2.785   0.530   7.076
 7358W        W14667  13.456   0.117   9.490
 7359W        W14668  13.004   8.432   8.221
 7360W        W14669  18.465   0.419   7.741
 7361W        W14670   2.370   5.530   7.850
 7362W        W14671  10.538   4.358   6.316
 7363W        W14672  18.357   3.024   9.211
 7364W        W14673   7.918   5.372   7.137
 7365W        W14674   5.924   3.287   6.351
 7366W        W14675   6.768   2.188   8.322
 7367W        W14676   1.212   8.340   7.060
 7368W        W14677  10.104   9.139   0.614
 7369W        W14678   8.527   7.887   7.574
 7370W        W14679   1.448   0.858   7.500
 7371W        W14680   5.816   7.902   8.183
 7372W        W14681   9.664   0.681   0.279
 7373W        W14682   2.897   7.553   0.547
 7374W        W14683   2.412   0.769   6.783
 7375W        W14684  16.587   6.123   5.893
 7376W        W14685   1.047   1.142   7.359
 7377W        W14686   4.451   8.314   8.741
 7378W        W14687   1.239   6.717   8.768
 7379W        W14688  13.633   0.309   6.786
 7380W        W14689   9.043   8.727   8.810
 7381W        W14690  15.650   7.995   0.873
 7382W        W14691  14.565   2.067   7.134
 7383W        W14692  15.204   7.126   7.119
 7384W        W14693   7.001   5.144   9.043
 7385W        W14694  12.938   0.245   1.019
 7386W        W14695  15.236   0.645   1.012
 7387W        W14696  18.682   8.391   0.995
 7388W        W14697   8.913   9.868   8.545
 7389W        W14698  14.820   2.874   6.038
 7390W        W14699   0.302   4.146   9.736
 7391W        W14700  14.477   2.729   8.883
 7392W        W14701  17.338   8.523   7.497
 7393W        W14702  19.781   5.901   7.384
 7394W        W14703  13.965   0.237   9.232
 7395W        W14704   4.248   7.165   0.480
 7396W        W14705  14.826   1.667   9.516
 7397W        W14706  18.336   5.844   0.104
 7398W        W14707  16.342   3.678   0.410
 7399W        W14708   9.898   3.046   0.592
 7400W        W14709   2.249   6.556   8.860
 7401W        W14710  18.960   2.663   6.348
 7402W        W14711  15.099   8.512   6.242
 7403W        W14712  10.509   3.032   7.488
 7404W        W14713   5.311   6.500   9.081
 7405W        W14714  14.136   5.415   8.363
 7406W        W14715  14.319   5.921   8.315
 7407W        W14716   8.958   4.879   7.303
 7408W        W14717   4.055   7.779   7.004
 7409W        W14718   9.087   7.154   6.322
 7410W        W14719   2.085   3.700   9.790
 7411W        W14720  12.230   4.241   7.283
 7412W        W14721  10.526   2.379   6.677
 7413W        W14722   2.597   7.501   6.625
 7414W        W14723  11.456   3.242   7.887
 7415W        W14724   7.442   6.932   9.059
 7416W        W14725  16.546   6.633   8.296
 7417W        W14726   9.119   2.647   0.119
 7418W        W14727  13.138   8.457   9.617
 7419W        W14728   9.608   2.610   9.313
 7420W        W14729  11.849   0.459   6.865
 7421W        W14730   0.142   7.919   8.883
 7422W        W14731  10.233   6.818   8.024
 7423W        W14732  11.573   9.983   6.791
 7424W        W14733  13.215   5.110   6.347
 7425W        W14734  14.761   6.893   8.265
 7426W        W14735  18.216   9.968   7.762
 7427W        W14736   3.266   5.855   9.341
 7428W        W14737   3.050   7.529   6.378
 7429W        W14738   1.954   8.772   9.250
 7430W        W14739  19.144   0.902   7.687
 7431W        W14740   8.970   1.660   9.479
 7432W        W14741   7.082   7.515   6.498
 7433W        W14742   3.281   8.006   0.434
 7434W        W14743  11.795   6.127   8.462
 7435W        W14744   5.339   9.750   9.320
 7436W        W14745  15.457   2.852   9.887
 7437W        W14746   4.407   8.774   6.266
 7438W        W14747  18.949   3.973   6.449
 7439W        W14748   8.154   0.347   7.278
 7440W        W14749  10.353   3.747   7.008
 7441W        W14750  16.322   1.789   5.848
 7442W        W14751  19.698   7.282   6.306
 7443W        W14752   1.288   7.028   6.332
 7444W        W14753  13.836   8.788   8.435
 7445W        W14754  13.838   6.551   8.802
 7446W        W14755  13.081   3.905   7.510
 7447W        W14756   5.653   4.005   8.627
 7448W        W14757  12.319   0.455   6.621
 7449W        W14758  16.435   3.023   6.166
 7450W        W14759   3.147   3.605   9.021
 7451W        W14760  10.970   0.201   0.827
 7452W        W14761  16.163   9.147   7.366
 7453W        W14762   3.084   0.846   0.284
 7454W        W14763   6.179   7.287   0.698
 7455W        W14764   4.273   2.847   8.053
 7456W        W14765  18.673   2.218   8.430
 7457W        W14766   5.949   3.676   9.347
 7458W        W14767  12.318   7.519   0.170
 7459W        W14768   2.776   4.453   9.859
 7460W        W14769   6.443   1.610   7.758
 7461W        W14770   9.494   2.826   9.772
 7462W        W14771  16.846   1.258   0.003
 7463W        W14772   9.525   3.171   7.159
 7464W        W14773  15.084   5.004   0.497
 7465W        W14774  15.298   7.656   0.191
 7466W        W14775  18.954   5.975   0.650
 7467W        W14776  12.292   1.740   6.608
 7468W        W14777  12.063   6.978   8.699
 7469W        W14778  16.687   7.997   6.451
 7470W        W14779  16.570   3.602   8.423
 7471W        W14780   8.103   1.117   8.376
 7472W        W14781   5.508   2.974   6.915
 7473W        W14782  10.977   0.378   8.808
 7474W        W14783  12.414   2.672   0.187
 7475W        W14784  15.970   6.411   7.340
 7476W        W14785   6.498   8.293   8.296
 7477W        W14786  14.010   2.592   7.433
 7478W        W14787   3.075   3.561   9.521
 7479W        W14788   9.066   0.904   6.406
 7480W        W14789  10.034   1.067   7.037
 7481W        W14790   4.111   7.987   9.896
 7482W        W14791   8.718   0.675   7.159
 7483W        W14792  15.825   6.046   8.378
 7484W        W14793  14.849   0.251   9.224
 7485W        W14794   7.378   8.466   8.144
 7486W        W14795  13.140   4.046   7.988
 7487W        W14796  17.753   8.707   6.678
 7488W        W14797   5.813   8.142   8.898
 7489W        W14798  16.543   2.167   7.591
 7490W        W14799  10.013   0.053   9.725
 7491W        W14800   4.906   2.776   0.752
 7492W        W14801   1.384   8.495   8.834
 7493W        W14802   8.086   2.671   6.420
 7494W        W14803  19.256   7.775   0.736
 7495W        W14804  16.401   2.631   7.388
 7496W        W14805   8.216   5.591   7.947
 7497W        W14806   9.779   4.483   0.790
 7498W        W14807  13.938   4.504   9.378
 7499W        W14808  17.804   1.800   8.183
 7500W        W14809  12.432   8.411   8.386
 7501W        W14810  14.307   2.814   6.629
 7502W        W14811  12.612   9.772   8.112
 7503W        W14812  11.478   1.655   9.058
 7504W        W14813   8.294   4.045   7.018
 7505W        W14814   0.198   1.628   7.086
 7506W        W14815   0.100   5.909   9.206
 7507W        W14816   7.670   8.871   6.629
 7508W        W14817  15.075   6.478   8.222
 7509W        W14818  11.441   8.263   9.440
 7510W        W14819   0.105   3.167   6.980
 7511W        W14820   4.566   1.332   8.761
 7512W        W14821   6.569   9.238   6.360
 7513W        W14822   4.812   4.546   9.814
 7514W        W14823   1.314   3.598   7.927
 7515W        W14824  14.451   2.561   9.756
 7516W        W14825  13.491   3.985   0.992
 7517W        W14826  12.359   8.560   6.337
 7518W        W14827  18.090   6.037   7.953
 7519W        W14828  10.243   6.281   7.866
 7520W        W14829   6.848   9.493   8.543
 7521W        W14830  18.282   1.367   0.773
 7522W        W14831   5.682   4.939   8.643
 7523W        W14832   0.349   4.591   9.999
 7524W        W14833  14.884   7.981   0.381
 7525W        W14834   8.418   3.586   7.267
 7526W        W14835  14.585   6.777   7.007
 7527W        W14836   4.575   7.822   6.992
 7528W        W14837  10.468   3.696   9.026
 7529W        W14838  16.474   3.011   9.709
 7530W        W14839  19.740   3.217   9.959
 7531W        W14840  19.201   4.973   7.219
 7532W        W14841  13.163   6.945   9.774
 7533W        W14842   2.632   7.326   9.301
 7534W        W14843   5.206   9.704   0.970
 7535W        W14844  16.439   2.663   8.873
 7536W        W14845   6.780   3.459   0.723
 7537W        W14846   9.598   0.405   7.936
 7538W        W14847  15.452   8.448   8.351
 7539W        W14848   1.678   4.090   5.988
 7540W        W14849   0.797   4.502   0.924
 7541W        W14850   9.902   8.682   9.741
 7542W        W14851   7.202   9.876   6.157
 7543W        W14852  19.867   0.329   7.312
 7544W        W14853   2.237   5.186   6.352
 7545W        W14854  19.733   1.729   6.136
 7546W        W14855   9.380   6.295   6.675
 7547W        W14856  15.743   6.721   7.693
 7548W        W14857   4.211   2.689   0.118
 7549W        W14858   3.308   8.816   0.866
 7550W        W14859   7.562   7.811   7.047
 7551W        W14860   7.447   4.039   0.203
 7552W        W14861   1.313   7.877   8.448
 7553W        W14862  18.715   6.932   8.288
 7554W        W14863  10.808   2.286   7.505
 7555W        W14864   1.734   6.592   6.779
 7556W        W14865  14.583   8.514   9.896
 7557W        W14866   7.261   2.945   9.311
 7558W        W14867   7.043   7.248   6.050
 7559W        W14868  14.291   7.162   0.687
 7560W        W14869   5.490   0.329   9.915
 7561W        W14870  12.514   5.239   8.815
 7562W        W14871   9.614   0.740   8.320
 7563W        W14872   8.916   3.930   0.553
 7564W        W14873   3.552   4.621   0.269
 7565W        W14874   6.161   0.774   7.483
 7566W        W14875  18.663   2.084   6.858
 7567W        W14876  12.281   9.618   9.970
 7568W        W14877  11.078   5.043   6.282
 7569W        W14878  13.495   9.660   8.133
 7570W        W14879   7.675   7.824   0.457
 7571W        W14880  11.657   3.523   7.249
 7572W        W14881   6.010   5.964   8.233
 7573W        W14882  19.355   0.816   6.368
 7574W        W14883  18.473   9.873   8.605
 7575W        W14884   3.123   1.519   0.778
 7576W        W14885   3.044   4.125   7.784
 7577W        W14886  15.832   9.161   8.699
 7578W        W14887   9.481   1.558   7.497
 7579W        W14888  12.679   7.224   0.378
 7580W        W14889  16.122   9.086   0.798
 7581W        W14890   0.856   3.342   7.956
 7582W        W14891   9.703   4.301   6.728
 7583W        W14892  17.830   1.292   5.956
 7584W        W14893  13.533   1.427   8.753
 7585W        W14894  15.033   9.500   0.204
 7586W        W14895   9.341   7.579   6.142
 7587W        W14896  18.203   7.826   0.170
 7588W        W14897   4.672   2.741   9.885
 7589W        W14898  15.307   6.322   9.925
 7590W        W14899  19.686   5.172   8.872
 7591W        W14900  17.337   0.811   6.895
 7592W        W14901   7.336   8.798   8.579
 7593W        W14902  19.427   9.267   7.542
 7594W        W14903  17.568   8.602   9.696
 7595W        W14904   0.369   5.468   7.549
 7596W        W14905  17.405   6.493   8.288
 7597W        W14906  19.128   2.136   6.619
 7598W        W14907  12.552   0.063   9.929
 7599W        W14908   6.232   2.720   6.521
 7600W        W14909   7.196   6.439   8.906
 7601W        W14910   3.027   2.292   7.932
 7602W        W14911   0.639   5.954   9.288
 7603W        W14912  12.821   2.293   0.706
 7604W        W14913   0.074   3.903   8.904
 7605W        W14914   5.118   9.918   8.864
 7606W        W14915   5.373   8.380   6.145
 7607W        W14916  18.297   6.488   7.799
 7608W        W14917   1.242   3.110   7.688
 7609W        W14918   4.127   9.952   9.962
 7610W        W14919  14.085   6.094   8.753
 7611W        W14920  18.670   1.267   9.488
 7612W        W14921  10.815   7.444   8.541
 7613W        W14922   6.491   7.541   7.717
 7614W        W14923  11.170   1.093   6.165
 7615W        W14924   3.144   3.677   7.520
 7616W        W14925  14.936   4.983   8.924
 7617W        W14926   2.699   7.225   7.052
 7618W        W14927  10.760   3.370   6.740
 7619W        W14928   4.450   3.217   8.931
 7620W        W14929   9.751   0.202   0.152
 7621W        W14930   2.032   0.982   8.889
 7622W        W14931  19.607   2.702   9.694
 7623W        W14932   4.275   4.953   0.550
 7624W        W14933   0.920   1.582   8.684
 7625W        W14934  18.222   7.698   7.888
 7626W        W14935  15.268   9.742   7.764
 7627W        W14936   0.998   7.940   6.776
 7628W        W14937  12.511   1.789   6.141
 7629W        W14938   3.130   0.239   0.246
 7630W        W14939   6.263   0.673   8.353
 7631W        W14940  12.381   9.794   0.801
 7632W        W14941  12.471   1.632   8.801
 7633W        W14942   4.586   2.087   6.565
 7634W        W14943  14.597   2.179   0.514
 7635W        W14944   1.344   5.209   7.463
 7636W        W14945   5.735   1.568   0.515
 7637W        W14946   9.856   4.959   8.424
 7638W        W14947  10.935   1.430   7.847
 7639W        W14948  16.186   7.811   8.715
 7640W        W14949   9.910   5.970   0.868
 7641W        W14950   3.396   2.521   7.656
 7642W        W14951  12.738   4.054   9.347
 7643W        W14952  17.915   6.063   0.878
 7644W        W14953   8.276   8.725   9.461
 7645W        W14954  14.400   0.341   8.965
 7646W        W14955  14.859   6.775   9.395
 7647W        W14956  18.347   1.141   6.738
 7648W        W14957   1.183   0.734   6.579
 7649W        W14958  18.030   4.213   7.621
 7650W        W14959  10.408   5.620   7.491
 7651W        W14960  10.731   7.973   0.223
 7652W        W14961  14.747   6.584   7.823
 7653W        W14962  12.373   3.201   9.422
 7654W        W14963   8.995   1.712   7.458
 7655W        W14964  19.500   8.695   9.302
 7656W        W14965   3.560   3.162   8.493
 7657W        W14966  17.213   3.609   0.760
 7658W        W14967  16.886   4.110   9.926
 7659W        W14968  10.664   8.919   0.191
 7660W        W14969   1.128   7.111   9.530
 7661W        W14970   6.377   6.620   0.480
 7662W        W14971   4.568   3.632   9.853
 7663W        W14972  17.984   6.883   0.248
 7664W        W14973  12.366   8.722   0.883
 7665W        W14974  14.412   3.678   9.670
 7666W        W14975  19.196   2.687   0.532
 7667W        W14976  16.804   8.275   0.595
 7668W        W14977  14.373   7.143   9.674
 7669W        W14978   5.730   5.504   8.915
 7670W        W14979   6.195   9.970   8.933
 7671W        W14980  19.691   6.787   7.405
 7672W        W14981  14.712   8.396   7.667
 7673W        W14982   5.475   7.561   7.992
 7674W        W14983  12.253   0.170   7.067
 7675W        W14984   3.365   4.400   8.585
 7676W        W14985   4.985   8.056   6.108
 7677W        W14986  13.181   4.733   8.823
 7678W        W14987   0.849   8.255   7.919
 7679W        W14988   9.397   8.386   9.081
 7680W        W14989  13.353   6.906   8.459
 7681W        W14990  16.038   3.021   9.408
 7682W        W14991   0.777   0.840   6.261
 7683W        W14992  14.596   2.162   8.987
 7684W        W14993  15.342   3.198   7.621
 7685W        W14994   2.822   0.302   8.845
 7686W        W14995  17.423   9.478   8.743
 7687W        W14996   2.713   1.514   8.286
 7688W        W14997  10.414   5.924   0.928
 7689W        W14998   9.934   7.174   8.270
 7690W        W14999  13.319   4.852   0.590
 7691W        W15000   0.723   4.823   8.757
 7692W        W15001   3.775   7.920   7.444
 7693W        W15002   2.230   3.889   8.538
 7694W        W15003  15.902   9.888   0.209
 7695W        W15004  14.453   0.251   6.152
 7696W        W15005  10.606   9.241   0.640
 7697W        W15006  19.826   6.882   0.339
 7698W        W15007  14.802   9.660   7.966
 7699W        W15008   2.538   0.923   9.575
 7700W        W15009  16.862   8.013   8.222
 7701W        W15010   2.956   6.369   7.932
 7702W        W15011   7.486   3.500   8.388
 7703W        W15012   5.314   3.692   7.040
 7704W        W15013  17.292   1.340   6.831
 7705W        W15014   6.113   6.034   9.264
 7706W        W15015   0.730   5.516   8.121
 7707W        W15016  10.435   2.193   7.154
 7708W        W15017  12.976   2.130   8.245
 7709W        W15018  16.806   7.062   6.797
 7710W        W15019   2.120   7.420   6.853
 7711W        W15020   2.194   3.793   6.510
 7712W        W15021   2.450   0.858   8.024
 7713W        W15022  13.231   2.296   0.339
 7714W        W15023   1.206   6.628   7.707
 7715W        W15024   6.568   7.015   7.828
 7716W        W15025  14.277   1.212   7.033
 7717W        W15026  12.552   2.193   9.746
 7718W        W15027   7.493   4.648   6.145
 7719W        W15028   4.801   4.218   1.040
 7720W        W15029   6.721   1.725   0.468
 7721W        W15030   9.479   1.404   6.233
 7722W        W15031  16.046   1.230   7.389
 7723W        W15032   7.255   4.164   6.492
 7724W        W15033  14.464   4.699   8.765
 7725W        W15034   1.129   1.141   8.784
 7726W        W15035  16.402   6.022   0.483
 7727W        W15036   1.385   2.615   7.894
 7728W        W15037   0.127   7.996   7.439
 7729W        W15038  12.659   3.956   7.842
 7730W        W15039  10.956   4.178   6.568
 7731W        W15040  12.559   4.717   8.127
 7732W        W15041  12.913   7.093   6.339
 7733W        W15042   6.689   2.330   7.313
 7734W        W15043  19.637   6.051   8.990
 7735W        W15044   8.491   0.064   7.925
 7736W        W15045   7.014   3.036   8.857
 7737W        W15046  10.863   0.223   7.347
 7738W        W15047  12.337   8.052   0.204
 7739W        W15048  12.144   6.585   0.032
 7740W        W15049   4.101   0.629   6.610
 7741W        W15050   4.831   5.853   6.008
 7742W        W15051  12.384   2.061   6.987
 7743W        W15052   6.900   2.580   9.120
 7744W        W15053  13.992   8.040   0.985
 7745W        W15054   0.332   0.635   6.552
 7746W        W15055   0.324   4.450   6.970
 7747W        W15056  10.121   9.432   6.118
 7748W        W15057   4.955   8.466   0.026
 7749W        W15058  10.850   5.898   0.659
 7750W        W15059   1.918   8.445   8.838
 7751W        W15060  12.322   5.172   7.849
 7752W        W15061   7.959   0.377   0.140
 7753W        W15062   2.774   8.535   8.016
 7754W        W15063   5.722   0.519   6.223
 7755W        W15064   5.274   6.318   0.924
 7756W        W15065  14.805   6.316   0.122
 7757W        W15066  16.179   3.197   8.374
 7758W        W15067   8.844   3.090   7.582
 7759W        W15068  13.840   5.815   7.476
 7760W        W15069   8.162   0.817   8.966
 7761W        W15070  17.451   4.631   7.007
 7762W        W15071  11.322   9.803   0.682
 7763W        W15072  13.631   4.037   8.835
 7764W        W15073  16.511   4.421   7.994
 7765W        W15074   9.912   8.381   0.169
 7766W        W15075   3.692   2.878   7.869
 7767W        W15076   7.764   2.207   7.502
 7768W        W15077   2.688   7.925   6.296
 7769W        W15078   4.244   1.036   7.968
 7770W        W15079  11.260   4.149   9.050
 7771W        W15080  15.203   7.871   8.784
 7772W        W15081  10.793   4.513   7.525
 7773W        W15082   7.201   4.740   0.648
 7774W        W15083  10.884   5.392   9.226
 7775W        W15084  11.533   6.094   9.498
 7776W        W15085  18.959   6.858   9.285
 7777W        W15086  11.741   8.887   0.188
 7778W        W15087  11.040   4.489   9.391
 7779W        W15088   9.428   5.357   6.551
 7780W        W15089  18.083   3.619   6.548
 7781W        W15090  18.685   0.385   0.220
 7782W        W15091  18.822   3.094   8.939
 7783W        W15092  17.415   6.428   9.291
 7784W        W15093  15.298   7.928   6.537
 7785W        W15094  17.530   9.143   6.440
 7786W        W15095   6.053   0.354   9.241
 7787W        W15096   2.872   6.831   8.478
 7788W        W15097   3.993   3.008   6.070
 7789W        W15098   6.847   4.469   7.909
 7790W        W15099   5.805   6.977   7.252
 7791W        W15100   2.012   2.062   9.419
 7792W        W15101  19.970   3.839   6.226
 7793W        W15102   7.205   7.861   8.797
 7794W        W15103   1.650   7.749   0.625
 7795W        W15104  18.780   1.746   9.712
 7796W        W15105   8.734   5.587   8.914
 7797W        W15106  13.354   2.795   0.653
 7798W        W15107  10.414   4.635   7.188
 7799W        W15108  14.337   1.760   8.689
 7800W        W15109   7.220   8.847   6.910
 7801W        W15110  16.993   1.705   0.213
 7802W        W15111   1.354   3.145   8.171
 7803W        W15112   8.950   3.916   6.906
 7804W        W15113   4.877   4.462   7.042
 7805W        W15114  10.800   0.281   0.329
 7806W        W15115  10.565   9.856   0.161
 7807W        W15116  15.500   4.210   9.161
 7808W        W15117   2.485   5.033   0.837
 7809W        W15118  10.959   8.792   8.838
 7810W        W15119   2.102   4.854   1.135
 7811W        W15120   4.103   8.187   9.098
 7812W        W15121  16.214   7.839   6.600
 7813W        W15122  19.658   2.704   0.737
 7814W        W15123   8.108   9.827   8.870
 7815W        W15124  14.971   1.197   9.326
 7816W        W15125  13.706   5.442   6.282
 7817W        W15126  12.977   2.042   6.231
 7818W        W15127  13.556   5.823   0.488
 7819W        W15128   2.098   7.380   9.315
 7820W        W15129   4.050   6.828   0.805
 7821W        W15130  10.829   2.818   6.675
 7822W        W15131   8.420   1.609   6.084
 7823W        W15132   2.263   9.765   8.974
 7824W        W15133  11.257   5.328   7.763
 7825W        W15134  19.536   2.226   9.444
 7826W        W15135   3.177   7.364   0.155
 7827W        W15136  19.614   3.119   8.423
 7828W        W15137  10.863   0.356   6.853
 7829W        W15138  14.628   2.014   6.505
 7830W        W15139   0.171   7.420   8.953
 7831W        W15140   9.066   3.577   0.162
 7832W        W15141  16.441   1.274   8.166
 7833W        W15142  13.348   5.876   9.237
 7834W        W15143  14.167   4.887   0.070
 7835W        W15144  10.583   0.729   0.109
 7836W        W15145   8.949   3.534   7.282
 7837W        W15146  10.345   1.652   7.206
 7838W        W15147   2.142   7.960   8.855
 7839W        W15148  19.950   9.916   6.505
 7840W        W15149   3.039   4.966   9.942
 7841W        W15150   1.996   2.504   8.742
 7842W        W15151  11.003   4.328   7.066
 7843W        W15152   6.753   3.827   9.002
 7844W        W15153  12.953   3.531   7.871
 7845W        W15154  16.770   9.293   7.018
 7846W        W15155   9.404   9.094   8.875
 7847W        W15156   0.193   0.567   9.985
 7848W        W15157  13.523   1.537   0.863
 7849W        W15158   5.771   7.681   9.162
 7850W        W15159   1.017   4.887   7.214
 7851W        W15160   8.865   9.160   7.968
 7852W        W15161   3.239   6.363   7.017
 7853W        W15162  17.428   3.054   9.698
 7854W        W15163   5.629   1.008   6.125
 7855W        W15164   4.649   2.185   8.519
 7856W        W15165  19.058   3.634   6.054
 7857W        W15166  10.125   4.071   8.842
 7858W        W15167  18.182   9.950   9.030
 7859W        W15168   3.551   3.748   0.328
 7860W        W15169  17.694   3.697   6.136
 7861W        W15170  14.039   7.214   7.959
 7862W        W15171   1.135   1.643   6.573
 7863W        W15172   8.170   0.397   6.684
 7864W        W15173   7.720   4.220   6.300
 7865W        W15174   0.550   6.421   0.008
 7866W        W15175  13.400   0.712   7.079
 7867W        W15176  19.242   7.970   6.307
 7868W        W15177   7.593   8.772   7.662
 7869W        W15178   7.693   9.714   6.183
 7870W        W15179   8.851   9.417   0.139
 7871W        W15180   0.165   6.500   0.475
 7872W        W15181  12.656   2.373   7.328
 7873W        W15182  15.919   3.896   9.068
 7874W        W15183  17.091   6.009   8.143
 7875W        W15184  15.130   6.140   7.840
 7876W        W15185  14.415   4.950   8.281
 7877W        W15186  19.610   8.283   0.592
 7878W        W15187  15.681   9.325   7.378
 7879W        W15188   3.342   2.271   9.644
 7880W        W15189  14.574   3.924   9.246
 7881W        W15190  19.692   8.352   8.329
 7882W        W15191   3.333   4.643   0.732
 7883W        W15192   0.628   9.328   0.273
 7884W        W15193  11.884   2.878   8.619
 7885W        W15194   3.801   3.148   6.555
 7886W        W15195   4.038   3.660   8.545
 7887W        W15196   6.370   1.939   7.401
 7888W        W15197   0.606   7.732   9.000
 7889W        W15198  12.024   6.569   8.382
 7890W        W15199   2.238   6.089   6.152
 7891W        W15200   7.936   5.986   7.029
 7892W        W15201   0.411   5.951   8.787
 7893W        W15202   6.818   7.338   9.584
 7894W        W15203   0.306   6.775   9.632
 7895W        W15204  16.941   1.638   5.925
 7896W        W15205  19.436   9.569   7.102
 7897W        W15206   6.267   5.046   8.348
 7898W        W15207  16.280   3.486   6.305
 7899W        W15208   8.777   2.149   6.652
 7900W        W15209   6.130   1.367   9.303
 7901W        W15210   3.531   5.093   0.857
 7902W        W15211   9.403   8.312   0.230
 7903W        W15212  11.842   0.647   9.864
 7904W        W15213  12.255   6.647   9.056
 7905W        W15214  14.629   3.697   6.826
 7906W        W15215  12.858   8.876   0.759
 7907W        W15216   4.955   0.673   6.883
 7908W        W15217   1.985   4.710   7.974
 7909W        W15218  12.015   4.375   0.124
 7910W        W15219   9.242   5.135   6.973
 7911W        W15220   6.987   3.033   7.926
 7912W        W15221  18.607   2.242   0.561
 7913W        W15222   8.360   1.274   6.810
 7914W        W15223  10.547   9.444   6.410
 7915W        W15224   2.057   2.264   0.170
 7916W        W15225  11.760   2.121   0.593
 7917W        W15226   0.914   5.102   8.355
 7918W        W15227  12.549   1.320   6.331
 7919W        W15228   0.385   9.445   7.979
 7920W        W15229   9.097   2.576   9.202
 7921W        W15230  14.849   5.480   0.578
 7922W        W15231  12.855   8.780   9.907
 7923W        W15232   2.285   7.222   7.841
 7924W        W15233   3.688   5.514   6.775
 7925W        W15234   3.464   9.431   8.790
 7926W        W15235  17.424   9.033   7.525
 7927W        W15236   9.386   8.639   9.746
 7928W        W15237   4.520   2.998   7.098
 7929W        W15238  19.583   0.250   7.750
 7930W        W15239   9.447   4.569   0.193
 7931W        W15240  17.293   6.043   7.587
 7932W        W15241  12.291   2.638   6.425
 7933W        W15242  19.049   3.576   7.500
 7934W        W15243   6.125   4.185   8.559
 7935W        W15244  12.318   1.508   7.502
 7936W        W15245   9.219   7.147   0.756
 7937W        W15246   0.344   4.621   7.948
 7938W        W15247   1.442   0.861   0.909
 7939W        W15248   2.871   6.894   0.169
 7940W        W15249   7.229   1.659   9.888
 7941W        W15250   3.341   8.869   7.514
 7942W        W15251   3.779   3.626   6.817
 7943W        W15252   4.432   3.583   0.477
 7944W        W15253   7.055   7.586   1.000
 7945W        W15254  16.785   6.897   9.486
 7946W        W15255   3.714   8.835   9.623
 7947W        W15256   9.773   4.127   9.225
 7948W        W15257   3.455   5.977   0.778
 7949W        W15258   5.106   1.865   9.201
 7950W        W15259  18.459   9.515   8.973
 7951W        W15260  19.213   7.389   9.823
 7952W        W15261  15.532   5.478   1.322
 7953W        W15262  14.576   1.191   7.444
 7954W        W15263   4.557   5.439   8.269
 7955W        W15264   1.031   6.780   7.031
 7956W        W15265  12.803   1.697   6.572
 7957W        W15266  13.214   3.058   7.256
 7958W        W15267  18.658   4.410   9.169
 7959W        W15268   7.517   1.017   7.131
 7960W        W15269   4.313   2.398   7.627
 7961W        W15270  14.570   4.439   8.334
 7962W        W15271  11.491   8.599   6.904
 7963W        W15272  15.447   6.939   8.073
 7964W        W15273  19.621   2.178   6.463
 7965W        W15274  11.013   6.523   8.268
 7966W        W15275  13.051   3.316   8.356
 7967W        W15276   2.822   0.605   9.280
 7968W        W15277  11.900   8.752   8.347
 7969W        W15278   2.151   7.986   9.716
 7970W        W15279  13.609   7.354   0.624
 7971W        W15280   4.567   4.550   8.474
 7972W        W15281  18.883   8.070   7.685
 7973W        W15282  16.624   0.835   0.881
 7974W        W15283  16.995   6.968   0.440
 7975W        W15284  11.432   7.804   0.138
 7976W        W15285  13.694   6.791   6.719
 7977W        W15286   2.590   5.504   6.514
 7978W        W15287   2.641   8.186   8.369
 7979W        W15288  19.658   5.577   9.193
 7980W        W15289   8.014   1.878   6.273
 7981W        W15290   3.100   2.524   0.535
 7982W        W15291   5.623   8.799   8.285
 7983W        W15292  14.738   8.646   8.104
 7984W        W15293   0.231   1.236   0.144
 7985W        W15294   7.742   3.419   0.888
 7986W        W15295  18.943   6.989   8.759
 7987W        W15296   5.486   7.748   6.118
 7988W        W15297   2.178   1.210   9.819
 7989W        W15298  13.735   3.205   8.840
 7990W        W15299  12.031   4.395   5.962
 7991W        W15300   3.296   1.768   0.361
 7992W        W15301  13.562   1.000   9.044
 7993W        W15302   7.685   0.784   9.694
 7994W        W15303   7.858   5.552   0.226
 7995W        W15304  19.261   7.115   6.553
 7996W        W15305   2.974   0.406   6.200
 7997W        W15306  13.781   3.184   0.719
 7998W        W15307  15.681   7.270   0.175
 7999W        W15308   4.488   0.557   8.815
 8000W        W15309  11.454   7.169   7.099
 8001W        W15310   7.045   1.250   8.262
 8002W        W15311   1.683   4.337   9.879
 8003W        W15312  11.388   2.070   0.958
 8004W        W15313  18.457   8.349   6.185
 8005W        W15314   5.877   3.090   9.894
 8006W        W15315  19.308   3.099   0.245
 8007W        W15316  12.482   3.147   0.433
 8008W        W15317  11.879   7.999   9.433
 8009W        W15318  15.897   1.398   6.567
 8010W        W15319  10.234   3.420   9.406
 8011W        W15320  18.998   3.430   0.942
 8012W        W15321  17.941   0.393   7.661
 8013W        W15322   2.931   7.748   9.266
 8014W        W15323  15.315   3.175   8.117
 8015W        W15324   0.819   7.820   6.159
 8016W        W15325  10.778   3.353   0.374
 8017W        W15326   7.395   4.170   8.039
 8018W        W15327  19.245   9.687   8.317
 8019W        W15328  14.534   5.043   7.289
 8020W        W15329  11.958   2.564   9.973
 8021W        W15330   6.832   9.169   0.375
 8022W        W15331   5.025   4.393   9.327
 8023W        W15332   0.059   5.353   0.952
 8024W        W15333  17.127   8.614   0.393
 8025W        W15334  16.839   2.442   7.100
 8026W        W15335   7.252   0.011   8.892
 8027W        W15336  12.541   9.246   9.289
 8028W        W15337   2.119   7.405   0.158
 8029W        W15338  14.587   2.705   7.926
 8030W        W15339   0.036   4.469   0.389
 8031W        W15340  16.048   1.760   8.290
 8032W        W15341  12.663   6.691   6.518
 8033W        W15342   8.037   8.731   7.913
 8034W        W15343  17.793   7.808   6.506
 8035W        W15344  18.681   7.843   6.787
 8036W        W15345  14.838   8.330   7.185
 8037W        W15346  18.690   9.191   6.944
 8038W        W15347   5.574   7.065   7.971
 8039W        W15348   5.640   0.151   9.466
 8040W        W15349   4.257   3.383   6.609
 8041W        W15350   5.190   6.109   0.119
 8042W        W15351  12.035   7.430   8.020
 8043W        W15352   5.483   2.159   7.997
 8044W        W15353  16.848   5.394   9.426
 8045W        W15354   6.732   8.612   8.965
 8046W        W15355   3.924   0.385   7.024
 8047W        W15356  13.618   8.165   0.167
 8048W        W15357   8.805   8.187   6.363
 8049W        W15358  15.295   8.231   0.577
 8050W        W15359   0.624   7.887   7.629
 8051W        W15360   8.765   3.708   8.877
 8052W        W15361  15.525   3.626   7.395
 8053W        W15362   5.773   9.689   6.738
 8054W        W15363  17.005   0.834   9.762
 8055W        W15364  13.666   8.918   6.502
 8056W        W15365  11.569   3.154   0.028
 8057W        W15366  11.239   1.245   6.653
 8058W        W15367   0.342   3.174   7.835
 8059W        W15368   2.452   6.406   7.849
 8060W        W15369  16.259   4.616   9.978
 8061W        W15370  10.323   9.627   9.742
 8062W        W15371  12.483   0.618   7.078
 8063W        W15372  12.706   2.925   6.497
 8064W        W15373  13.004   2.190   1.209
 8065W        W15374  16.724   0.525   6.606
 8066W        W15375  13.973   6.362   6.428
 8067W        W15376  15.065   4.186   6.319
 8068W        W15377  10.569   9.993   9.483
 8069W        W15378   7.564   9.785   0.259
 8070W        W15379   4.894   9.530   9.097
 8071W        W15380  10.926   5.567   7.100
 8072W        W15381  13.396   2.792   6.708
 8073W        W15382   5.544   8.147   9.338
 8074W        W15383   9.559   1.501   0.478
 8075W        W15384  16.491   7.802   9.942
 8076W        W15385  18.786   8.313   6.586
 8077W        W15386  15.017   5.028   9.417
 8078W        W15387   3.282   8.136   7.056
 8079W        W15388  18.490   9.248   6.187
 8080W        W15389  12.384   3.900   8.329
 8081W        W15390   9.133   6.396   9.829
 8082W        W15391   4.885   8.583   6.135
 8083W        W15392  15.963   6.548   6.844
 8084W        W15393  11.122   9.232   9.083
 8085W        W15394   9.879   7.763   9.800
 8086W        W15395  18.265   3.239   6.211
 8087W        W15396  13.785   0.716   9.977
 8088W        W15397   8.642   1.843   7.841
 8089W        W15398  16.291   5.336   6.926
 8090W        W15399   8.509   8.376   7.327
 8091W        W15400  16.127   5.054   0.769
 8092W        W15401   6.001   9.477   8.246
 8093W        W15402   5.471   6.929   8.476
 8094W        W15403  12.056   4.538   9.116
 8095W        W15404   7.520   1.191   0.641
 8096W        W15405  16.722   7.046   0.869
 8097W        W15406  16.079   2.328   6.841
 8098W        W15407  12.324   5.591   7.536
 8099W        W15408   7.116   1.235   9.215
 8100W        W15409  17.448   9.486   7.768
 8101W        W15410   2.260   5.466   7.324
 8102W        W15411   7.559   2.590   8.388
 8103W        W15412  10.523   4.547   8.502
 8104W        W15413  19.091   8.941   7.118
 8105W        W15414  10.227   2.655   8.507
 8106W        W15415  11.251   9.248   8.088
 8107W        W15416   1.998   0.165   9.656
 8108W        W15417  18.240   4.429   6.651
 8109W        W15418  17.768   6.273   7.564
 8110W        W15419  18.362   5.573   7.907
 8111W        W15420  12.148   5.686   8.016
 8112W        W15421  18.049   8.711   9.877
 8113W        W15422  14.689   6.387   9.115
 8114W        W15423   0.177   5.093   7.236
 8115W        W15424  10.042   0.720   8.608
 8116W        W15425   8.190   2.600   0.570
 8117W        W15426  12.162   3.586   0.407
 8118W        W15427  18.183   6.042   6.973
 8119W        W15428  15.080   9.522   6.114
 8120W        W15429  16.491   5.829   6.712
 8121W        W15430  17.138   0.392   9.527
 8122W        W15431  13.536   6.848   7.200
 8123W        W15432  15.529   5.066   9.160
 8124W        W15433  11.960   7.758   9.898
 8125W        W15434   8.475   4.475   9.292
 8126W        W15435   6.016   5.657   6.216
 8127W        W15436  16.489   9.715   8.516
 8128W        W15437   1.544   4.832   7.747
 8129W        W15438   5.692   6.031   9.556
 8130W        W15439  17.227   6.529   0.304
 8131W        W15440   4.249   4.125   8.708
 8132W        W15441  10.026   2.747   9.002
 8133W        W15442  17.201   2.622   9.987
 8134W        W15443  15.683   2.904   0.372
 8135W        W15444   3.754   7.175   8.352
 8136W        W15445   3.299   5.589   9.796
 8137W        W15446   4.402   4.662   7.067
 8138W        W15447   9.683   9.806   6.139
 8139W        W15448  17.431   0.638   1.241
 8140W        W15449   9.637   3.436   6.552
 8141W        W15450   4.160   5.493   7.022
 8142W        W15451   4.630   5.465   6.250
 8143W        W15452  14.536   7.506   7.643
 8144W        W15453   9.684   9.593   7.689
 8145W        W15454  13.039   9.387   0.453
 8146W        W15455   6.060   3.998   0.714
 8147W        W15456  17.428   0.363   7.657
 8148W        W15457   6.433   8.445   7.186
 8149W        W15458   4.726   4.065   8.433
 8150W        W15459  19.565   5.854   6.420
 8151W        W15460   7.489   5.139   8.891
 8152W        W15461   5.795   4.900   9.175
 8153W        W15462   9.763   9.487   8.842
 8154W        W15463   9.588   9.267   6.857
 8155W        W15464  10.724   8.997   6.596
 8156W        W15465   0.381   9.806   7.202
 8157W        W15466  14.414   6.853   9.142
 8158W        W15467  19.251   5.470   0.660
 8159W        W15468  19.419   3.762   7.202
 8160W        W15469   2.281   3.395   8.382
 8161W        W15470   4.561   1.118   7.306
 8162W        W15471  13.960   2.759   8.740
 8163W        W15472   9.734   5.713   8.798
 8164W        W15473   6.800   2.056   6.561
 8165W        W15474  17.621   9.827   9.873
 8166W        W15475  14.870   4.079   7.930
 8167W        W15476   0.706   9.907   0.462
 8168W        W15477  17.427   3.091   0.676
 8169W        W15478  16.920   1.570   8.170
 8170W        W15479  12.091   3.749   7.362
 8171W        W15480  17.187   3.367   6.789
 8172W        W15481   1.781   2.544   6.812
 8173W        W15482   5.591   5.635   6.911
 8174W        W15483  11.178   3.310   8.748
 8175W        W15484   3.703   6.382   6.719
 8176W        W15485   4.662   8.759   8.570
 8177W        W15486  17.071   0.271   8.509
 8178W        W15487   8.417   7.337   0.391
 8179W        W15488   0.311   8.397   6.580
 8180W        W15489   4.840   8.954   6.554
 8181W        W15490   2.511   5.433   9.985
 8182W        W15491   1.186   9.943   8.275
 8183W        W15492   2.177   9.947   6.251
 8184W        W15493   8.631   9.531   8.862
 8185W        W15494   6.120   1.372   6.800
 8186W        W15495   1.185   5.200   9.626
 8187W        W15496   7.329   6.856   0.922
 8188W        W15497   2.884   9.647   9.618
 8189W        W15498   6.026   7.720   6.133
 8190W        W15499  17.708   0.888   7.667
 8191W        W15500   1.235   5.648   6.129
 8192W        W15501   3.040   8.474   6.735
 8193W        W15502   9.422   2.569   6.393
 8194W        W15503  18.923   5.222   6.086
 8195W        W15504  14.106   5.356   7.527
 8196W        W15505   8.633   3.424   0.984
 8197W        W15506  11.838   7.015   8.232
 8198W        W15507  16.423   8.842   7.673
 8199W        W15508   3.061   8.942   7.951
 8200W        W15509   7.135   3.765   6.173
 8201W        W15510  12.534   9.795   6.540
 8202W        W15511  11.435   1.614   0.035
 8203W        W15512   4.239   9.965   6.939
 8204W        W15513  19.919   0.066   8.937
 8205W        W15514  12.310   0.402   0.224
 8206W        W15515  13.332   4.885   7.825
 8207W        W15516  14.813   8.067   6.391
 8208W        W15517  15.258   9.849   9.278
 8209W        W15518  11.475   1.815   9.564
 8210W        W15519  17.696   6.523   9.694
 8211W        W15520   0.732   7.798   8.147
 8212W        W15521  15.048   3.040   0.137
 8213W        W15522  14.052   6.404   8.330
 8214W        W15523  11.016   6.439   6.491
 8215W        W15524  13.174   6.505   7.144
 8216W        W15525   7.192   8.387   8.907
 8217W        W15526  12.953   0.978   6.283
 8218W        W15527  10.906   6.538   7.444
 8219W        W15528   6.636   4.223   9.813
 8220W        W15529   8.332   9.157   7.843
 8221W        W15530  18.666   8.980   8.775
 8222W        W15531   9.162   9.863   6.338
 8223W        W15532   5.278   1.425   9.456
 8224W        W15533  15.898   3.876   9.587
 8225W        W15534  11.829   4.160   7.627
 8226W        W15535   8.213   9.079   0.198
 8227W        W15536   0.884   9.873   6.506
 8228W        W15537   0.250   5.784   0.707
 8229W        W15538   8.019   8.148   8.767
 8230W        W15539  19.851   4.600   9.835
 8231W        W15540  13.617   5.423   9.187
 8232W        W15541  17.335   0.789   8.467
 8233W        W15542  16.613   5.705   8.474
 8234W        W15543  11.245   8.126   6.868
 8235W        W15544  16.829   9.712   7.850
 8236W        W15545   6.004   2.336   0.215
 8237W        W15546  10.288   5.615   9.950
 8238W        W15547  13.967   9.761   7.360
 8239W        W15548  13.465   6.719   7.679
 8240W        W15549   2.350   3.261   6.650
 8241W        W15550   3.743   8.012   6.614
 8242W        W15551  15.500   4.158   0.200
 8243W        W15552   6.966   0.376   9.115
 8244W        W15553  14.610   7.319   9.200
 8245W        W15554   6.828   0.040   0.286
 8246W        W15555  18.257   1.297   0.273
 8247W        W15556  12.390   6.070   6.422
 8248W        W15557  14.871   4.021   8.446
 8249W        W15558   9.641   8.811   0.180
 8250W        W15559  14.253   2.142   7.548
 8251W        W15560  19.962   3.091   7.473
 8252W        W15561   1.554   6.109   6.890
 8253W        W15562  12.121   5.238   9.134
 8254W        W15563  15.590   1.163   0.785
 8255W        W15564  18.408   4.644   0.617
 8256W        W15565  12.054   2.095   9.710
 8257W        W15566   3.818   0.162   7.944
 8258W        W15567   2.624   3.449   0.675
 8259W        W15568  17.616   4.595   8.868
 8260W        W15569   3.845   5.527   8.950
 8261W        W15570  13.284   7.688   9.330
 8262W        W15571   4.206   0.140   8.699
 8263W        W15572  16.417   1.275   8.697
 8264W        W15573   0.908   7.598   8.614
 8265W        W15574   3.942   9.320   8.928
 8266W        W15575  14.020   0.647   7.359
 8267W        W15576  11.925   2.571   9.471
 8268W        W15577   1.316   3.971   6.744
 8269W        W15578  13.726   2.990   9.586
 8270W        W15579  15.826   8.286   0.475
 8271W        W15580   8.283   2.169   7.496
 8272W        W15581   3.621   0.133   0.454
 8273W        W15582  15.825   7.094   9.289
 8274W        W15583   6.223   6.484   8.948
 8275W        W15584   5.832   8.630   8.768
 8276W        W15585   7.094   8.793   7.899
 8277W        W15586  19.962   7.196   7.574
 8278W        W15587  17.184   4.677   9.109
 8279W        W15588   8.460   2.963   6.135
 8280W        W15589  18.375   8.558   8.915
 8281W        W15590  18.334   4.602   9.754
 8282W        W15591  14.140   5.414   9.151
 8283W        W15592  19.860   0.892   6.175
 8284W        W15593  14.878   5.563   5.682
 8285W        W15594  17.475   6.890   8.733
 8286W        W15595   6.456   3.620   7.397
 8287W        W15596  19.322   4.770   9.721
 8288W        W15597  19.158   6.606   6.550
 8289W        W15598  17.475   0.218   0.952
 8290W        W15599   2.312   9.656   0.394
 8291W        W15600   7.503   5.125   7.968
 8292W        W15601  14.097   9.293   0.207
 8293W        W15602   1.937   3.920   8.974
 8294W        W15603  15.211   8.334   7.574
 8295W        W15604  14.852   1.700   8.951
 8296W        W15605   6.724   8.611   7.577
 8297W        W15606  19.380   0.779   6.891
 8298W        W15607   6.942   7.135   0.790
 8299W        W15608  12.408   5.313   0.863
 8300W        W15609   8.365   5.919   9.834
 8301W        W15610  14.760   1.585   7.177
 8302W        W15611  15.078   2.709   8.943
 8303W        W15612   6.011   2.752   7.472
 8304W        W15613   8.667   3.458   6.848
 8305W        W15614  14.340   7.626   9.829
 8306W        W15615   4.654   1.664   0.766
 8307W        W15616  12.293   3.103   8.393
 8308W        W15617   9.740   3.441   0.322
 8309W        W15618  10.693   4.902   9.071
 8310W        W15619   6.054   6.906   9.213
 8311W        W15620   4.078   6.339   0.280
 8312W        W15621   9.485   4.029   7.915
 8313W        W15622  11.769   1.287   0.257
 8314W        W15623  15.072   8.384   6.731
 8315W        W15624   7.834   0.743   7.425
 8316W        W15625  17.140   8.042   8.649
 8317W        W15626   7.119   2.507   9.569
 8318W        W15627  17.883   1.723   9.745
 8319W        W15628   6.231   1.549   9.777
 8320W        W15629  11.372   4.652   9.010
 8321W        W15630   9.639   5.561   6.144
 8322W        W15631  16.824   3.208   6.444
 8323W        W15632   9.360   0.318   1.025
 8324W        W15633  14.815   0.130   8.722
 8325W        W15634   2.267   3.491   8.894
 8326W        W15635  16.922   2.529   0.623
 8327W        W15636  19.088   9.477   7.881
 8328W        W15637  17.412   1.848   6.884
 8329W        W15638  18.408   7.302   0.864
 8330W        W15639   4.744   0.623   7.363
 8331W        W15640   8.358   2.042   8.252
 8332W        W15641  15.031   4.568   5.840
 8333W        W15642  17.220   8.531   8.828
 8334W        W15643   1.318   7.473   7.481
 8335W        W15644   2.844   3.948   9.274
 8336W        W15645  18.184   2.184   0.272
 8337W        W15646  13.072   8.930   7.355
 8338W        W15647  17.477   7.504   7.376
 8339W        W15648  12.012   0.758   8.974
 8340W        W15649  12.721   8.125   0.570
 8341W        W15650  11.196   3.590   7.494
 8342W        W15651  11.999   3.390   6.888
 8343W        W15652   3.120   9.746   6.488
 8344W        W15653   9.490   3.582   8.167
 8345W        W15654   8.033   7.875   7.853
 8346W        W15655  12.006   9.388   7.055
 8347W        W15656  17.632   4.366   9.338
 8348W        W15657   4.424   3.493   7.388
 8349W        W15658  16.419   3.422   5.821
 8350W        W15659  11.451   7.093   7.897
 8351W        W15660   9.328   3.166   6.242
 8352W        W15661  14.917   5.668   7.880
 8353W        W15662   8.474   4.838   6.562
 8354W        W15663   8.306   4.902   8.416
 8355W        W15664  16.516   1.110   7.106
 8356W        W15665   6.109   5.620   6.712
 8357W        W15666   5.585   2.948   0.317
 8358W        W15667   9.887   3.086   0.004
 8359W        W15668  13.382   5.664   0.005
 8360W        W15669   7.642   4.450   0.660
 8361W        W15670   8.513   3.103   0.141
 8362W        W15671  14.195   3.197   9.694
 8363W        W15672   0.260   6.965   0.679
 8364W        W15673   6.167   7.195   7.525
 8365W        W15674  18.824   3.675   0.487
 8366W        W15675  19.871   9.873   7.033
 8367W        W15676   2.576   0.198   0.911
 8368W        W15677   0.980   8.798   7.006
 8369W        W15678  11.272   6.223   0.640
 8370W        W15679   7.172   4.239   0.671
 8371W        W15680   1.284   8.023   6.344
 8372W        W15681  14.833   5.466   7.040
 8373W        W15682   5.506   0.216   8.478
 8374W        W15683  18.475   9.875   6.772
 8375W        W15684   1.383   6.244   8.952
 8376W        W15685  12.302   1.533   8.315
 8377W        W15686  18.725   4.212   0.607
 8378W        W15687  18.644   1.256   8.422
 8379W        W15688  10.171   9.174   8.916
 8380W        W15689   6.107   4.362   6.753
 8381W        W15690  14.505   2.108   9.500
 8382W        W15691  12.951   5.387   0.145
 8383W        W15692  10.302   2.321   8.885
 8384W        W15693   7.332   1.377   7.871
 8385W        W15694  15.308   0.477   0.523
 8386W        W15695  18.837   8.498   7.981
 8387W        W15696   5.871   8.400   7.015
 8388W        W15697  16.363   0.625   7.008
 8389W        W15698   6.907   6.157   0.960
 8390W        W15699  11.398   2.214   6.978
 8391W        W15700   3.274   7.796   7.455
 8392W        W15701  12.628   9.263   9.813
 8393W        W15702   5.695   3.233   0.708
 8394W        W15703   9.407   3.782   0.478
 8395W        W15704   9.101   3.451   0.713
 8396W        W15705   7.468   7.331   6.829
 8397W        W15706   3.478   0.641   8.809
 8398W        W15707   9.474   3.669   7.265
 8399W        W15708  11.798   3.993   0.438
 8400W        W15709   4.589   2.236   9.954
 8401W        W15710  17.822   2.688   8.711
 8402W        W15711  18.856   1.768   0.215
 8403W        W15712   8.753   4.705   8.061
 8404W        W15713   4.533   7.181   7.725
 8405W        W15714   0.781   0.346   0.158
 8406W        W15715   6.661   8.179   6.818
 8407W        W15716   5.687   4.343   9.893
 8408W        W15717  13.479   9.859   6.543
 8409W        W15718   5.781   8.298   6.465
 8410W        W15719  18.462   1.241   7.210
 8411W        W15720  16.993   7.449   7.493
 8412W        W15721  18.419   9.738   6.268
 8413W        W15722  13.607   9.192   0.458
 8414W        W15723  16.456   9.059   8.592
 8415W        W15724   9.822   1.160   0.194
 8416W        W15725   7.229   3.263   6.097
 8417W        W15726   7.589   7.620   9.562
 8418W        W15727  16.000   4.135   0.987
 8419W        W15728  16.310   8.049   8.268
 8420W        W15729  13.403   7.313   7.403
 8421W        W15730   5.085   1.871   7.312
 8422W        W15731  14.086   3.445   6.888
 8423W        W15732  19.611   1.786   9.708
 8424W        W15733   1.313   2.139   6.290
 8425W        W15734  17.837   5.079   0.897
 8426W        W15735   6.943   4.323   0.235
 8427W        W15736   6.534   2.768   7.495
 8428W        W15737   7.719   9.426   9.565
 8429W        W15738   9.989   7.487   0.218
 8430W        W15739   9.288   4.302   0.632
 8431W        W15740  18.971   6.334   7.491
 8432W        W15741  15.853   4.045   7.422
 8433W        W15742   8.830   8.251   7.764
 8434W        W15743   9.591   4.528   8.310
 8435W        W15744   7.780   3.056   8.373
 8436W        W15745  13.959   1.654   9.498
 8437W        W15746   1.024   2.339   8.114
 8438W        W15747  19.258   7.494   6.128
 8439W        W15748  16.010   0.290   1.118
 8440W        W15749  13.003   4.511   0.356
 8441W        W15750  13.578   6.998   8.890
 8442W        W15751  11.010   0.959   9.632
 8443W        W15752   9.108   8.693   7.955
 8444W        W15753   2.795   8.867   6.940
 8445W        W15754   2.802   6.726   6.659
 8446W        W15755  16.004   1.006   6.923
 8447W        W15756   6.969   1.691   7.708
 8448W        W15757  19.531   8.892   6.628
 8449W        W15758  13.952   1.588   8.975
 8450W        W15759   8.237   0.874   6.464
 8451W        W15760  10.133   8.196   0.592
 8452W        W15761   6.312   4.093   8.096
 8453W        W15762   2.046   3.150   0.368
 8454W        W15763  19.990   1.564   8.629
 8455W        W15764  19.774   3.159   0.466
 8456W        W15765   5.751   6.598   8.202
 8457W        W15766   1.682   0.012   7.502
 8458W        W15767  17.275   8.786   7.973
 8459W        W15768   5.158   5.764   8.366
 8460W        W15769   2.525   7.166   0.637
 8461W        W15770  19.670   3.182   8.933
 8462W        W15771  17.258   7.000   7.515
 8463W        W15772   9.626   0.638   6.930
 8464W        W15773  11.243   3.868   9.989
 8465W        W15774   3.022   7.636   6.969
 8466W        W15775  16.486   4.434   7.448
 8467W        W15776  12.188   9.076   9.994
 8468W        W15777  14.601   4.198   9.669
 8469W        W15778   2.883   5.933   0.620
 8470W        W15779  16.895   6.435   9.000
 8471W        W15780   0.342   8.990   0.576
 8472W        W15781  16.422   5.738   7.204
 8473W        W15782   9.070   7.794   7.793
 8474W        W15783  11.830   3.387   8.676
 8475W        W15784  14.810   0.529   0.722
 8476W        W15785   5.782   4.126   8.140
 8477W        W15786  17.023   7.758   9.321
 8478W        W15787  13.016   5.206   8.733
 8479W        W15788   9.259   5.005   9.341
 8480W        W15789  16.344   0.207   6.714
 8481W        W15790   1.424   8.852   0.113
 8482W        W15791  14.879   6.878   6.010
 8483W        W15792   9.426   6.380   8.301
 8484W        W15793   4.124   7.225   6.523
 8485W        W15794   9.047   2.016   7.048
 8486W        W15795   4.573   5.924   0.886
 8487W        W15796   4.791   5.829   8.028
 8488W        W15797   8.213   0.307   9.192
 8489W        W15798  10.019   5.530   9.485
 8490W        W15799  10.145   1.948   6.414
 8491W        W15800   9.997   4.574   0.326
 8492W        W15801   5.771   0.336   0.351
 8493W        W15802  11.013   5.423   0.577
 8494W        W15803  17.776   9.240   0.735
 8495W        W15804  17.089   8.461   8.327
 8496W        W15805   9.528   6.122   7.847
 8497W        W15806  14.352   1.257   0.685
 8498W        W15807   6.302   3.087   9.568
 8499W        W15808  12.687   0.212   8.932
 8500W        W15809   1.375   7.113   7.822
 8501W        W15810  13.198   7.687   7.100
 8502W        W15811   8.641   1.542   9.092
 8503W        W15812  13.186   6.640   6.208
 8504W        W15813  19.281   0.563   8.599
 8505W        W15814   7.691   1.801   0.097
 8506W        W15815   1.990   5.701   8.758
 8507W        W15816   0.596   1.157   8.714
 8508W        W15817   2.809   9.182   9.844
 8509W        W15818   3.506   7.043   8.954
 8510W        W15819   4.672   1.079   9.218
 8511W        W15820   5.365   1.725   8.776
 8512W        W15821  13.923   7.146   7.078
 8513W        W15822   0.822   5.477   9.367
 8514W        W15823  12.268   6.555   7.936
 8515W        W15824   8.182   2.265   8.703
 8516W        W15825   1.079   7.182   9.017
 8517W        W15826  12.577   4.491   0.627
 8518W        W15827  18.317   8.597   0.724
 8519W        W15828   2.015   6.920   7.040
 8520W        W15829   2.148   3.677   0.864
 8521W        W15830  11.133   8.513   6.066
 8522W        W15831   0.417   5.285   5.993
 8523W        W15832  10.666   4.822   6.061
 8524W        W15833  10.510   7.045   7.623
 8525W        W15834  15.468   9.330   0.995
 8526W        W15835  11.340   0.189   7.528
 8527W        W15836   7.171   5.023   6.708
 8528W        W15837  14.320   7.536   8.838
 8529W        W15838   5.628   6.889   8.963
 8530W        W15839   8.252   8.739   7.057
 8531W        W15840   5.076   2.402   9.177
 8532W        W15841   0.025   6.044   6.229
 8533W        W15842  12.425   4.971   9.472
 8534W        W15843   0.684   0.464   0.637
 8535W        W15844  11.602   2.627   8.195
 8536W        W15845   3.807   3.973   8.942
 8537W        W15846  19.048   4.326   8.159
 8538W        W15847  16.692   8.684   9.720
 8539W        W15848   9.019   6.641   6.211
 8540W        W15849  10.676   4.151   9.711
 8541W        W15850   9.713   8.258   7.742
 8542W        W15851  11.952   8.484   6.639
 8543W        W15852   6.177   6.105   9.783
 8544W        W15853  16.498   5.383   6.457
 8545W        W15854  12.139   6.130   0.269
 8546W        W15855  13.106   9.279   0.967
 8547W        W15856   0.084   3.425   6.507
 8548W        W15857  11.770   7.324   7.525
 8549W        W15858  10.843   4.672   0.838
 8550W        W15859  19.359   8.282   8.843
 8551W        W15860  14.540   8.089   8.042
 8552W        W15861   0.379   8.978   9.172
 8553W        W15862   5.698   7.927   7.148
 8554W        W15863   7.832   8.584   9.723
 8555W        W15864  16.491   2.210   8.627
 8556W        W15865   9.745   9.774   6.653
 8557W        W15866  11.493   8.362   6.458
 8558W        W15867  19.570   2.782   7.629
 8559W        W15868   2.160   0.121   0.528
 8560W        W15869  17.049   3.610   8.148
 8561W        W15870   1.576   7.131   9.780
 8562W        W15871   5.122   2.141   5.934
 8563W        W15872  15.657   7.116   6.321
 8564W        W15873   7.173   3.558   8.798
 8565W        W15874   5.080   9.493   8.075
 8566W        W15875   5.586   2.685   8.860
 8567W        W15876  12.139   8.942   6.786
 8568W        W15877  18.572   0.891   0.363
 8569W        W15878   4.422   9.545   0.242
 8570W        W15879  15.683   8.507   6.961
 8571W        W15880   6.229   4.014   7.162
 8572W        W15881  18.746   7.926   0.766
 8573W        W15882   8.442   6.123   6.223
 8574W        W15883  16.816   7.687   8.853
 8575W        W15884   0.062   5.034   6.259
 8576W        W15885   1.598   1.717   6.307
 8577W        W15886   8.731   5.657   8.007
 8578W        W15887  18.695   7.560   7.724
 8579W        W15888   0.564   8.046   9.809
 8580W        W15889   9.358   7.569   7.062
 8581W        W15890  19.954   3.522   0.774
 8582W        W15891  19.146   8.253   9.321
 8583W        W15892  10.934   2.302   0.760
 8584W        W15893  14.075   6.035   7.024
 8585W        W15894  17.084   7.210   8.761
 8586W        W15895  19.260   7.282   0.836
 8587W        W15896  17.486   8.762   0.745
 8588W        W15897   7.719   3.905   9.279
 8589W        W15898  14.442   8.023   7.055
 8590W        W15899   4.982   0.164   7.435
 8591W        W15900   5.518   6.464   6.734
 8592W        W15901  10.858   7.530   9.059
 8593W        W15902  12.362   8.413   7.398
 8594W        W15903   8.836   5.296   7.630
 8595W        W15904  15.504   8.823   6.156
 8596W        W15905  19.385   4.944   0.220
 8597W        W15906   3.941   7.515   9.773
 8598W        W15907   7.173   1.986   8.078
 8599W        W15908  16.162   7.454   0.157
 8600W        W15909   9.242   2.668   8.344
 8601W        W15910  16.760   8.265   0.053
 8602W        W15911   3.165   3.723   6.952
 8603W        W15912  13.092   8.016   0.920
 8604W        W15913   8.152   6.429   8.512
 8605W        W15914  13.172   5.489   7.897
 8606W        W15915  18.054   0.417   8.859
 8607W        W15916   4.637   2.125   7.075
 8608W        W15917  12.021   7.014   7.174
 8609W        W15918  15.984   6.485   8.555
 8610W        W15919   2.286   2.712   6.955
 8611W        W15920  16.398   9.282   9.872
 8612W        W15921   2.505   8.960   7.914
 8613W        W15922   9.301   4.092   8.395
 8614W        W15923  19.446   4.534   7.411
 8615W        W15924   3.062   4.836   6.081
 8616W        W15925  19.030   5.670   7.024
 8617W        W15926   9.894   8.729   7.690
 8618W        W15927   9.469   3.572   9.260
 8619W        W15928   7.256   7.381   9.856
 8620W        W15929   7.762   9.077   8.717
 8621W        W15930   3.302   6.559   9.834
 8622W        W15931   3.712   0.762   8.310
 8623W        W15932  15.391   8.877   8.643
 8624W        W15933   4.724   4.089   0.037
 8625W        W15934  13.202   5.886   6.636
 8626W        W15935   8.893   0.249   9.769
 8627W        W15936  14.145   0.246   6.588
 8628W        W15937  19.155   1.537   9.451
 8629W        W15938   1.273   9.699   7.775
 8630W        W15939  17.688   0.965   0.933
 8631W        W15940   5.097   6.347   6.426
 8632W        W15941  12.882   4.710   6.341
 8633W        W15942  11.112   9.541   6.195
 8634W        W15943   4.107   5.457   7.998
 8635W        W15944  13.396   8.553   7.686
 8636W        W15945  11.620   0.387   9.034
 8637W        W15946  19.267   3.047   9.224
 8638W        W15947  15.390   0.539   6.812
 8639W        W15948   0.359   3.609   6.901
 8640W        W15949  16.829   4.182   6.297
 8641W        W15950   1.896   0.831   0.651
 8642W        W15951  10.560   5.763   5.984
 8643W        W15952   3.236   1.632   7.457
 8644W        W15953   9.073   8.190   0.735
 8645W        W15954   1.082   4.015   7.216
 8646W        W15955  13.892   5.616   7.964
 8647W        W15956  12.941   9.376   7.586
 8648W        W15957  14.736   6.005   6.491
 8649W        W15958   6.772   9.712   6.421
 8650W        W15959   7.013   7.858   9.814
 8651W        W15960   6.944   6.823   8.154
 8652W        W15961   7.942   8.636   0.245
 8653W        W15962   2.307   0.208   0.050
 8654W        W15963  16.420   1.108   0.269
 8655W        W15964  19.901   9.959   0.922
 8656W        W15965  11.512   7.321   6.339
 8657W        W15966   1.788   0.513   7.304
 8658W        W15967   1.756   1.263   0.905
 8659W        W15968   3.543   2.712   8.750
 8660W        W15969   7.909   8.180   0.042
 8661W        W15970   0.370   6.741   8.670
 8662W        W15971  18.412   5.575   6.994
 8663W        W15972   9.577   1.911   7.876
 8664W        W15973  10.851   4.001   6.086
 8665W        W15974   8.338   5.307   7.459
 8666W        W15975  18.012   2.649   1.225
 8667W        W15976   4.421   0.736   6.986
 8668W        W15977   6.665   0.742   0.623
 8669W        W15978   8.661   1.709   0.146
 8670W        W15979   5.053   1.362   8.513
 8671W        W15980   0.001   8.968   6.802
 8672W        W15981  19.755   9.435   6.730
 8673W        W15982   4.617   6.473   7.215
 8674W        W15983   5.492   0.201   0.779
 8675W        W15984  16.296   3.997   7.664
 8676W        W15985  18.861   3.947   9.233
 8677W        W15986  14.499   4.943   9.227
 8678W        W15987   6.572   4.650   6.064
 8679W        W15988  15.475   4.076   6.611
 8680W        W15989   8.593   4.375   6.772
 8681W        W15990  10.108   7.652   6.492
 8682W        W15991  17.279   8.206   0.081
 8683W        W15992  16.059   2.259   7.380
 8684W        W15993  11.326   1.319   9.439
 8685W        W15994   2.706   2.151   6.165
 8686W        W15995   0.954   5.827   8.892
 8687W        W15996   9.903   6.465   0.271
 8688W        W15997  18.435   7.078   8.681
 8689W        W15998  15.741   9.661   8.806
 8690W        W15999  15.383   3.764   9.912
 8691W        W16000   1.701   0.344   0.641
 8692W        W16001   4.175   5.494   6.525
 8693W        W16002  17.779   4.685   7.498
 8694W        W16003  13.881   5.882   9.194
 8695W        W16004   8.409   8.728   0.546
 8696W        W16005   2.289   9.638   7.121
 8697W        W16006   4.749   9.768   7.131
 8698W        W16007  19.907   3.847   6.751
 8699W        W16008  14.485   7.577   0.323
 8700W        W16009   5.038   8.134   9.228
 8701W        W16010  15.492   6.753   0.169
 8702W        W16011   6.995   9.268   6.662
 8703W        W16012   8.355   0.120   9.641
 8704W        W16013  19.999   8.295   1.003
 8705W        W16014  17.948   4.887   9.909
 8706W        W16015  14.618   3.035   8.362
 8707W        W16016   6.471   9.239   8.285
 8708W        W16017  17.596   9.501   9.243
 8709W        W16018   4.312   2.787   8.589
 8710W        W16019  12.746   4.260   8.284
 8711W        W16020  13.364   4.597   7.073
 8712W        W16021  10.526   5.202   7.107
 8713W        W16022  15.692   9.930   9.730
 8714W        W16023  18.310   1.708   7.373
 8715W        W16024   1.674   4.581   6.085
 8716W        W16025  12.968   3.808   8.395
 8717W        W16026   8.899   7.405   6.861
 8718W        W16027  13.569   4.095   7.241
 8719W        W16028  12.035   8.945   6.270
 8720W        W16029  18.245   2.341   6.096
 8721W        W16030   4.310   5.389   9.873
 8722W        W16031   8.536   9.257   0.542
 8723W        W16032   1.315   2.707   8.432
 8724W        W16033   9.644   6.375   0.692
 8725W        W16034  13.258   8.089   7.883
 8726W        W16035   8.647   4.967   0.154
 8727W        W16036   0.084   9.340   0.316
 8728W        W16037  13.967   5.594   0.728
 8729W        W16038   2.278   0.625   7.257
 8730W        W16039  16.208   5.927   0.986
 8731W        W16040  12.838   0.507   9.547
 8732W        W16041   9.506   2.343   9.954
 8733W        W16042   0.237   3.226   0.190
 8734W        W16043   5.287   8.029   7.450
 8735W        W16044   6.536   2.540   0.304
 8736W        W16045  14.143   2.306   0.751
 8737W        W16046   3.489   4.093   8.044
 8738W        W16047   8.648   6.607   7.920
 8739W        W16048  14.766   2.531   0.175
 8740W        W16049   4.716   2.574   8.829
 8741W        W16050   5.548   7.794   0.166
 8742W        W16051  16.239   6.946   0.715
 8743W        W16052  13.146   0.302   7.596
 8744W        W16053  13.006   6.098   0.812
 8745W        W16054  16.207   0.647   6.483
 8746W        W16055   3.996   8.397   0.763
 8747W        W16056   6.963   5.581   9.377
 8748W        W16057  12.729   4.035   0.368
 8749W        W16058  10.581   8.467   7.306
 8750W        W16059  17.634   5.085   7.172
 8751W        W16060  17.236   2.143   0.749
 8752W        W16061  16.168   6.210   9.128
 8753W        W16062  10.629   0.733   6.205
 8754W        W16063  12.091   6.070   7.328
 8755W        W16064  16.899   1.952   6.849
 8756W        W16065   1.764   0.639   9.632
 8757W        W16066   5.073   4.414   7.665
 8758W        W16067  16.249   0.465   0.706
 8759W        W16068   6.886   8.022   6.352
 8760W        W16069  16.107   2.766   8.102
 8761W        W16070   2.138   5.481   6.819
 8762W        W16071  11.544   7.597   7.884
 8763W        W16072   9.837   1.729   9.249
 8764W        W16073  11.206   8.816   7.829
 8765W        W16074   3.814   5.506   9.815
 8766W        W16075   8.369   5.506   0.218
 8767W        W16076   2.890   5.453   6.094
 8768W        W16077  19.379   5.533   7.807
 8769W        W16078   5.364   8.324   7.001
 8770W        W16079  17.268   9.463   0.686
 8771W        W16080   0.294   8.392   7.115
 8772W        W16081   8.776   1.558   6.995
 8773W        W16082   0.663   6.701   0.443
 8774W        W16083  11.625   9.312   6.160
 8775W        W16084  13.956   1.713   1.052
 8776W        W16085  16.319   8.390   0.302
 8777W        W16086  14.535   0.844   0.423
 8778W        W16087  13.931   1.522   0.546
 8779W        W16088   3.577   2.487   0.833
 8780W        W16089  12.142   8.913   7.305
 8781W        W16090   0.490   8.849   6.887
 8782W        W16091  19.518   1.752   8.705
 8783W        W16092  19.502   0.158   0.640
 8784W        W16093   2.352   9.747   0.883
 8785W        W16094  16.366   6.142   7.486
 8786W        W16095  11.366   9.443   9.996
 8787W        W16096  10.603   4.559   8.003
 8788W        W16097   3.716   6.557   7.714
 8789W        W16098  16.139   7.889   9.573
 8790W        W16099   0.564   2.163   8.335
 8791W        W16100  11.612   6.027   0.020
 8792W        W16101   0.594   7.941   7.117
 8793W        W16102  19.532   3.686   7.724
 8794W        W16103  10.829   1.088   7.468
 8795W        W16104  14.391   1.720   9.208
 8796W        W16105  16.890   3.898   9.388
 8797W        W16106  18.747   2.745   0.786
 8798W        W16107  17.729   7.941   0.907
 8799W        W16108  10.429   2.414   0.167
 8800W        W16109  16.420   7.358   8.836
 8801W        W16110   7.013   2.549   7.663
 8802W        W16111   6.271   5.432   7.528
 8803W        W16112  19.003   8.790   9.141
 8804W        W16113   7.960   4.432   9.287
 8805W        W16114  15.577   4.481   7.492
 8806W        W16115  13.578   1.026   9.599
 8807W        W16116  12.520   4.437   0.121
 8808W        W16117   3.791   1.650   0.246
 8809W        W16118  18.427   9.430   7.648
 8810W        W16119  13.515   8.268   8.275
 8811W        W16120   9.790   1.725   8.349
 8812W        W16121  15.484   8.136   0.099
 8813W        W16122  17.460   0.805   9.478
 8814W        W16123   7.210   3.866   9.221
 8815W        W16124  14.366   4.641   6.445
 8816W        W16125  14.912   3.737   9.717
 8817W        W16126   1.801   2.975   9.946
 8818W        W16127   5.905   1.570   7.513
 8819W        W16128  16.933   8.359   7.800
 8820W        W16129   7.161   8.843   7.406
 8821W        W16130   2.016   3.357   7.650
 8822W        W16131  19.270   5.988   9.351
 8823W        W16132  15.707   1.101   7.986
 8824W        W16133   6.550   4.062   7.640
 8825W        W16134   6.374   3.644   0.451
 8826W        W16135   5.416   3.291   6.347
 8827W        W16136   3.205   9.744   8.452
 8828W        W16137  15.083   2.216   8.786
 8829W        W16138   8.897   9.049   6.556
 8830W        W16139   1.585   2.617   0.261
 8831W        W16140   7.869   7.446   7.638
 8832W        W16141  19.838   8.486   6.746
 8833W        W16142  14.885   3.243   7.356
 8834W        W16143   2.474   2.976   9.165
 8835W        W16144  16.850   1.199   8.976
 8836W        W16145  12.526   1.013   6.760
 8837W        W16146   8.070   1.391   6.410
 8838W        W16147   4.443   3.709   8.214
 8839W        W16148   6.482   4.473   9.410
 8840W        W16149   2.533   8.427   0.777
 8841W        W16150  10.678   6.902   8.367
 8842W        W16151  16.082   7.400   8.378
 8843W        W16152   9.672   1.401   7.952
 8844W        W16153  18.353   1.650   6.859
 8845W        W16154   1.133   3.147   7.193
 8846W        W16155   8.367   6.592   7.487
 8847W        W16156   5.479   1.704   7.781
 8848W        W16157  19.389   0.551   7.372
 8849W        W16158  16.446   2.688   6.890
 8850W        W16159   3.710   6.401   7.230
 8851W        W16160  15.016   8.321   8.620
 8852W        W16161  15.680   6.248   6.119
 8853W        W16162   4.084   3.590   9.577
 8854W        W16163   4.178   1.021   8.474
 8855W        W16164   7.755   0.231   6.065
 8856W        W16165  11.247   6.619   8.786
 8857W        W16166  17.987   0.374   5.948
 8858W        W16167   1.822   3.229   9.012
 8859W        W16168   2.869   5.890   8.676
 8860W        W16169   9.951   2.589   9.910
 8861W        W16170   2.506   3.512   6.209
 8862W        W16171   7.095   1.411   7.003
 8863W        W16172  18.342   0.687   9.962
 8864W        W16173  17.204   1.703   9.479
 8865W        W16174   1.269   5.058   0.129
 8866W        W16175  11.413   1.122   0.579
 8867W        W16176  10.749   6.208   6.119
 8868W        W16177   4.281   6.346   0.761
 8869W        W16178   9.375   3.162   8.468
 8870W        W16179   7.043   8.431   0.649
 8871W        W16180   6.652   3.024   6.918
 8872W        W16181  10.732   7.299   0.703
 8873W        W16182   9.459   7.616   9.490
 8874W        W16183   7.185   9.931   0.651
 8875W        W16184   3.524   8.453   0.577
 8876W        W16185  17.948   7.132   0.689
 8877W        W16186   5.080   9.942   8.348
 8878W        W16187  17.746   8.800   7.190
 8879W        W16188  12.641   7.542   8.370
 8880W        W16189   4.456   0.323   0.062
 8881W        W16190   5.094   8.516   7.420
 8882W        W16191   6.007   3.205   7.720
 8883W        W16192   5.125   2.352   7.155
 8884W        W16193  18.397   1.768   0.481
 8885W        W16194   2.999   6.375   0.234
 8886W        W16195   3.265   8.897   9.894
 8887W        W16196  17.789   7.567   8.122
 8888W        W16197  14.084   0.615   0.376
 8889W        W16198  13.582   7.696   7.999
 8890W        W16199  13.725   4.948   0.319
 8891W        W16200   9.906   7.536   6.966
 8892W        W16201  14.760   5.519   0.048
 8893W        W16202   0.413   3.217   0.696
 8894W        W16203   6.986   4.854   0.190
 8895W        W16204  11.173   3.435   9.438
 8896W        W16205   9.358   4.368   1.131
 8897W        W16206  18.707   5.166   7.868
 8898W        W16207  12.751   3.008   7.017
 8899W        W16208   7.128   3.288   7.026
 8900W        W16209   8.969   3.521   9.311
 8901W        W16210  12.618   4.854   1.042
 8902W        W16211  19.685   7.371   9.079
 8903W        W16212  11.549   5.534   0.723
 8904W        W16213   1.369   3.625   8.428
 8905W        W16214  11.606   0.619   7.662
 8906W        W16215   1.748   2.492   8.243
 8907W        W16216  14.719   3.246   9.759
 8908W        W16217  16.181   7.056   6.223
 8909W        W16218   0.024   8.091   9.724
 8910W        W16219   5.523   9.645   6.278
 8911W        W16220  15.872   7.191   7.949
 8912W        W16221  18.742   9.844   8.158
 8913W        W16222   4.525   6.759   0.600
 8914W        W16223  10.391   8.914   8.440
 8915W        W16224   0.371   6.596   6.283
 8916W        W16225   0.818   2.268   6.418
 8917W        W16226  18.264   2.538   8.441
 8918W        W16227  17.039   8.662   9.330
 8919W        W16228   0.634   2.272   6.923
 8920W        W16229   9.210   4.454   7.984
 8921W        W16230  11.775   9.696   9.768
 8922W        W16231  12.874   0.132   5.944
 8923W        W16232  15.455   8.393   8.880
 8924W        W16233  16.823   8.881   6.228
 8925W        W16234  15.346   9.108   9.968
 8926W        W16235  17.862   6.370   8.486
 8927W        W16236  17.475   4.700   7.964
 8928W        W16237   2.032   4.484   0.238
 8929W        W16238  17.198   4.254   7.284
 8930W        W16239   0.659   7.294   8.282
 8931W        W16240   7.653   6.945   7.122
 8932W        W16241  18.392   3.499   8.216
 8933W        W16242  12.422   8.511   6.882
 8934W        W16243   5.796   6.452   9.241
 8935W        W16244  11.761   6.628   7.909
 8936W        W16245  13.976   2.062   9.174
 8937W        W16246  19.343   2.991   5.468
 8938W        W16247   5.828   3.544   8.838
 8939W        W16248   4.110   5.532   8.502
 8940W        W16249   3.195   5.517   7.090
 8941W        W16250   9.315   1.275   9.534
 8942W        W16251   0.988   8.807   7.511
 8943W        W16252   2.351   4.633   7.592
 8944W        W16253  17.979   5.482   7.480
 8945W        W16254   7.940   0.420   0.683
 8946W        W16255  15.496   3.995   6.085
 8947W        W16256  16.381   2.602   9.377
 8948W        W16257  11.368   1.429   8.091
 8949W        W16258   5.043   2.152   0.665
 8950W        W16259   9.224   2.348   8.768
 8951W        W16260   7.063   4.510   6.906
 8952W        W16261  11.267   0.611   8.412
 8953W        W16262  14.678   0.718   6.576
 8954W        W16263   6.699   1.680   9.933
 8955W        W16264   0.647   0.358   9.210
 8956W        W16265   7.469   5.768   9.400
 8957W        W16266   5.104   7.818   9.851
 8958W        W16267   9.787   3.150   8.119
 8959W        W16268   3.065   0.652   6.654
 8960W        W16269   4.731   4.113   0.535
 8961W        W16270  15.528   5.940   0.204
 8962W        W16271  14.344   8.995   6.946
 8963W        W16272   5.222   6.091   7.305
 8964W        W16273   4.704   1.738   8.281
 8965W        W16274   5.709   8.904   0.683
 8966W        W16275  19.733   1.770   7.750
 8967W        W16276   1.430   8.857   6.791
 8968W        W16277  11.909   8.304   7.614
 8969W        W16278  19.720   5.138   5.916
 8970W        W16279   9.199   3.110   7.993
 8971W        W16280  16.491   1.743   7.915
 8972W        W16281   2.574   2.247   0.143
 8973W        W16282   1.432   3.498   6.938
 8974W        W16283   9.318   3.060   9.335
 8975W        W16284   7.502   6.813   9.568
 8976W        W16285  12.800   7.393   8.834
 8977W        W16286  18.964   5.475   6.552
 8978W        W16287   7.839   6.820   8.335
 8979W        W16288  18.237   2.245   6.606
 8980W        W16289  16.375   9.677   0.223
 8981W        W16290   7.141   5.033   8.529
 8982W        W16291  13.410   9.177   9.473
 8983W        W16292   8.040   3.209   8.812
 8984W        W16293   7.457   1.815   8.787
 8985W        W16294  16.552   4.881   0.550
 8986W        W16295   7.724   3.973   8.409
 8987W        W16296  14.926   5.896   7.405
 8988W        W16297   2.597   7.046   9.749
 8989W        W16298   2.874   1.297   8.800
 8990W        W16299  10.500   9.287   7.420
 8991W        W16300   6.226   8.879   6.454
 8992W        W16301   3.755   4.493   7.245
 8993W        W16302  14.488   5.106   7.793
 8994W        W16303   7.962   8.945   0.633
 8995W        W16304  15.978   0.739   8.246
 8996W        W16305  12.580   4.468   9.075
 8997W        W16306   6.571   7.653   6.166
 8998W        W16307   7.617   4.559   9.709
 8999W        W16308   1.086   6.119   0.611
 9000W        W16309  19.675   9.258   8.651
 9001W        W16310   3.902   1.897   5.893
 9002W        W16311  11.232   6.777   0.100
 9003W        W16312   8.588   2.562   9.288
 9004W        W16313  19.485   3.272   7.434
 9005W        W16314   4.605   6.319   0.328
 9006W        W16315   8.996   4.503   9.297
 9007W        W16316   5.148   6.114   8.810
 9008W        W16317   0.891   8.947   9.191
 9009W        W16318   5.679   9.717   0.677
 9010W        W16319  15.519   2.057   9.446
 9011W        W16320  16.502   9.740   6.903
 9012W        W16321   1.579   3.839   9.771
 9013W        W16322  12.456   5.651   8.457
 9014W        W16323  16.265   0.524   7.511
 9015W        W16324  15.991   8.770   0.429
 9016W        W16325  10.528   1.865   6.752
 9017W        W16326   8.244   6.915   5.816
 9018W        W16327   9.994   5.822   7.838
 9019W        W16328  19.960   1.462   9.159
 9020W        W16329   0.709   6.492   7.873
 9021W        W16330  13.611   8.655   0.358
 9022W        W16331   8.374   7.438   6.891
 9023W        W16332   2.269   4.596   0.712
 9024W        W16333  17.859   5.527   8.831
 9025W        W16334  16.685   0.843   7.527
 9026W        W16335  18.273   9.154   9.717
 9027W        W16336   5.496   6.543   7.248
 9028W        W16337   2.765   1.343   7.380
 9029W        W16338  15.758   7.783   7.286
 9030W        W16339  12.931   9.778   0.784
 9031W        W16340   3.222   1.542   8.335
 9032W        W16341  15.810   5.496   0.282
 9033W        W16342  19.356   8.750   8.247
 9034W        W16343  10.047   1.958   6.920
 9035W        W16344  16.938   1.567   7.652
 9036W        W16345  17.715   5.088   9.111
 9037W        W16346   9.667   5.910   0.406
 9038W        W16347   2.845   1.034   8.357
 9039W        W16348  12.564   5.772   0.159
 9040W        W16349  10.151   8.108   6.187
 9041W        W16350   9.999   2.465   0.475
 9042W        W16351  19.508   1.262   6.144
 9043W        W16352   5.058   7.624   7.700
 9044W        W16353   9.210   0.738   7.284
 9045W        W16354   0.813   7.413   7.792
 9046W        W16355  10.973   6.873   9.656
 9047W        W16356   7.488   2.662   7.517
 9048W        W16357   2.472   6.361   0.176
 9049W        W16358   7.703   6.898   0.549
 9050W        W16359  19.379   1.220   7.245
 9051W        W16360   7.870   0.294   9.608
 9052W        W16361  11.840   9.636   0.667
 9053W        W16362   5.244   4.053   8.315
 9054W        W16363   6.510   5.850   6.363
 9055W        W16364   1.286   9.784   7.254
 9056W        W16365   1.213   3.914   6.158
 9057W        W16366  14.173   8.532   9.597
 9058W        W16367  11.898   8.452   6.143
 9059W        W16368   4.224   5.050   8.297
 9060W        W16369  12.205   4.799   9.904
 9061W        W16370   3.629   8.912   8.651
 9062W        W16371   3.821   8.829   8.196
 9063W        W16372  10.393   5.165   9.421
 9064W        W16373   9.806   1.945   0.570
 9065W        W16374   1.048   2.042   8.513
 9066W        W16375  12.817   8.593   8.669
 9067W        W16376  16.486   8.487   9.290
 9068W        W16377   8.122   6.954   6.866
 9069W        W16378  15.307   7.088   9.338
 9070W        W16379  17.812   1.746   9.234
 9071W        W16380  11.132   9.914   6.544
 9072W        W16381  13.187   7.972   0.400
 9073W        W16382  12.432   5.530   7.051
 9074W        W16383   3.723   5.871   8.568
 9075W        W16384   8.618   0.717   9.365
 9076W        W16385  16.386   9.535   0.727
 9077W        W16386  13.393   8.183   9.276
 9078W        W16387  19.158   2.104   9.808
 9079W        W16388   2.309   2.370   9.707
 9080W        W16389  15.794   7.959   6.334
 9081W        W16390  11.731   1.282   7.361
 9082W        W16391  19.296   0.574   9.649
 9083W        W16392  13.943   4.467   0.375
 9084W        W16393   2.204   5.258   8.656
 9085W        W16394   3.958   8.517   8.736
 9086W        W16395  16.438   8.510   5.930
 9087W        W16396  16.778   0.176   6.991
 9088W        W16397   4.751   8.898   7.545
 9089W        W16398  15.951   1.271   9.486
 9090W        W16399   0.167   3.790   7.642
 9091W        W16400   4.581   8.427   7.455
 9092W        W16401   6.405   2.039   9.668
 9093W        W16402  15.453   6.510   8.563
 9094W        W16403  11.005   1.798   0.773
 9095W        W16404   2.006   5.045   7.143
 9096W        W16405  11.094   0.986   8.101
 9097W        W16406   1.668   4.318   7.842
 9098W        W16407  10.294   9.708   8.808
 9099W        W16408   5.154   9.058   7.824
 9100W        W16409  10.667   3.368   8.642
 9101W        W16410   1.478   2.060   8.183
 9102W        W16411   1.626   3.184   7.373
 9103W        W16412   7.232   5.595   8.936
 9104W        W16413   4.817   4.077   6.430
 9105W        W16414   4.434   9.503   6.805
 9106W        W16415  15.686   5.926   1.103
 9107W        W16416   8.401   0.203   0.682
 9108W        W16417   5.450   8.241   1.050
 9109W        W16418   6.227   3.506   5.987
 9110W        W16419   7.594   8.072   9.056
 9111W        W16420   7.957   5.202   8.199
 9112W        W16421  18.648   9.354   8.107
 9113W        W16422   0.279   0.619   6.029
 9114W        W16423   0.285   3.690   9.440
 9115W        W16424  10.840   4.157   0.198
 9116W        W16425   5.997   1.614   8.021
 9117W        W16426  18.559   7.426   8.213
 9118W        W16427   6.531   8.208   9.208
 9119W        W16428  10.062   9.782   0.172
 9120W        W16429   8.558   0.205   6.999
 9121W        W16430   5.832   3.930   6.811
 9122W        W16431   1.588   3.001   6.911
 9123W        W16432  19.102   5.386   0.177
 9124W        W16433  14.833   0.579   8.018
 9125W        W16434   5.417   2.054   6.456
 9126W        W16435   1.738   5.205   8.904
 9127W        W16436   4.692   4.175   7.418
 9128W        W16437   2.049   4.367   8.700
 9129W        W16438   5.561   2.052   0.519
 9130W        W16439  17.189   4.125   8.084
 9131W        W16440   1.575   0.806   8.631
 9132W        W16441   4.784   3.058   8.592
 9133W        W16442   5.246   0.706   6.327
 9134W        W16443   9.962   6.950   7.596
 9135W        W16444   9.049   4.541   8.460
 9136W        W16445   4.588   6.306   6.199
 9137W        W16446   5.581   5.244   0.311
 9138W        W16447   8.011   6.054   0.196
 9139W        W16448   7.572   1.072   8.225
 9140W        W16449  12.408   5.527   6.550
 9141W        W16450   5.724   5.337   9.825
 9142W        W16451   6.197   8.855   0.930
 9143W        W16452  18.901   0.815   6.638
 9144W        W16453  10.699   2.425   8.593
 9145W        W16454  15.607   2.351   7.022
 9146W        W16455  11.629   0.871   9.321
 9147W        W16456  17.764   5.047   6.661
 9148W        W16457   1.435   0.401   8.288
 9149W        W16458  19.698   4.632   0.709
 9150W        W16459  17.921   0.554   6.427
 9151W        W16460   5.731   1.110   7.019
 9152W        W16461  19.857   6.093   0.548
 9153W        W16462  11.266   4.185   8.542
 9154W        W16463   7.211   1.719   9.393
 9155W        W16464   8.584   7.838   0.547
 9156W        W16465   0.349   3.688   9.960
 9157W        W16466   0.697   3.438   9.683
 9158W        W16467  17.377   9.046   9.440
 9159W        W16468  15.126   5.396   7.459
 9160W        W16469   4.768   5.006   0.111
 9161W        W16470   0.671   7.214   0.269
 9162W        W16471  19.316   8.431   7.817
 9163W        W16472   8.480   7.809   9.571
 9164W        W16473   1.415   9.306   9.855
 9165W        W16474   7.025   1.775   8.531
 9166W        W16475   5.974   2.375   8.692
 9167W        W16476   3.102   7.781   7.934
 9168W        W16477   4.399   5.136   7.325
 9169W        W16478   2.280   1.784   8.257
 9170W        W16479   1.255   2.263   9.786
 9171W        W16480   5.475   2.985   9.282
 9172W        W16481   3.166   5.879   7.796
 9173W        W16482   5.131   3.277   6.760
 9174W        W16483  14.096   2.969   6.121
 9175W        W16484   1.184   8.469   6.573
 9176W        W16485   9.804   2.929   6.374
 9177W        W16486  14.096   7.285   9.255
 9178W        W16487  17.782   0.521   0.690
 9179W        W16488   6.489   3.124   7.848
 9180W        W16489  14.043   7.696   6.316
 9181W        W16490   6.035   0.080   0.755
 9182W        W16491   1.941   0.828   1.192
 9183W        W16492   8.625   0.366   7.538
 9184W        W16493  18.129   6.944   7.574
 9185W        W16494   2.062   7.534   6.355
 9186W        W16495   4.958   1.157   6.324
 9187W        W16496  17.687   9.486   0.270
 9188W        W16497   6.173   3.241   8.222
 9189W        W16498   3.273   1.943   6.548
 9190W        W16499  19.689   9.787   8.044
 9191W        W16500  15.467   2.242   0.778
 9192W        W16501  15.218   6.963   8.527
 9193W        W16502   3.191   3.344   0.828
 9194W        W16503  19.118   1.984   8.467
 9195W        W16504  15.426   9.287   8.975
 9196W        W16505   0.414   9.766   6.683
 9197W        W16506   0.504   2.304   7.424
 9198W        W16507   1.733   6.654   8.910
 9199W        W16508  12.668   0.219   8.388
 9200W        W16509  16.293   3.099   7.700
 9201W        W16510   7.480   1.627   8.303
 9202W        W16511   6.335   1.019   8.726
 9203W        W16512   2.026   7.048   0.915
 9204W        W16513   9.517   8.620   8.620
 9205W        W16514  17.809   8.207   9.936
 9206W        W16515  14.820   9.254   7.651
 9207W        W16516  12.912   9.675   9.952
 9208W        W16517  18.704   0.067   5.932
 9209W        W16518  12.540   3.619   9.127
 9210W        W16519  18.020   7.321   8.500
 9211W        W16520   5.783   5.369   7.713
 9212W        W16521   4.297   8.788   7.222
 9213W        W16522  13.277   2.717   9.577
 9214W        W16523   4.313   5.004   9.203
 9215W        W16524  11.333   4.063   6.237
 9216W        W16525   1.400   8.863   9.201
 9217W        W16526  18.595   5.613   9.637
 9218W        W16527   4.987   2.366   6.454
 9219W        W16528   5.465   1.021   9.732
 9220W        W16529   3.256   8.889   0.385
 9221W        W16530  15.864   8.660   8.641
 9222W        W16531   4.545   5.034   8.685
 9223W        W16532   6.610   1.176   6.910
 9224W        W16533  11.990   4.474   0.613
 9225W        W16534   4.624   7.499   0.307
 9226W        W16535  15.081   1.299   9.847
 9227W        W16536   5.715   4.722   6.601
 9228W        W16537   8.235   3.551   0.179
 9229W        W16538   7.020   6.904   9.361
 9230W        W16539  13.289   3.748   6.561
 9231W        W16540   0.091   1.582   8.087
 9232W        W16541   4.974   1.061   9.632
 9233W        W16542   6.243   6.696   7.523
 9234W        W16543  18.163   2.748   6.407
 9235W        W16544   1.632   8.361   9.273
 9236W        W16545  10.630   2.485   9.339
 9237W        W16546   9.374   8.891   6.393
 9238W        W16547  18.952   4.866   9.135
 9239W        W16548  18.334   0.192   8.206
 9240W        W16549   0.849   3.888   6.537
 9241W        W16550   0.807   5.572   6.415
 9242W        W16551  11.784   9.906   8.876
 9243W        W16552   6.054   8.025   0.443
 9244W        W16553   8.657   3.490   0.457
 9245W        W16554  19.671   5.080   6.976
 9246W        W16555  10.468   5.033   0.762
 9247W        W16556  17.180   9.944   7.509
 9248W        W16557   4.868   3.736   0.853
 9249W        W16558  16.515   8.560   8.437
 9250W        W16559   3.240   7.259   7.225
 9251W        W16560  17.098   7.892   6.164
 9252W        W16561   4.222   3.520   6.091
 9253W        W16562  13.296   7.424   8.880
 9254W        W16563  14.500   4.178   8.775
 9255W        W16564   3.132   7.034   9.758
 9256W        W16565   9.421   8.682   7.548
 9257W        W16566   7.211   1.338   8.729
 9258W        W16567   7.608   0.772   0.217
 9259W        W16568  11.183   7.035   8.367
 9260W        W16569   3.204   0.346   9.676
 9261W        W16570   4.369   7.336   6.966
 9262W        W16571   1.152   1.713   0.855
 9263W        W16572  11.562   6.995   8.691
 9264W        W16573   3.004   3.422   6.164
 9265W        W16574  16.101   2.812   0.841
 9266W        W16575   2.481   7.705   7.097
 9267W        W16576  12.707   4.907   0.079
 9268W        W16577  10.288   8.994   6.327
 9269W        W16578   5.289   4.697   9.873
 9270W        W16579   1.434   6.286   0.955
 9271W        W16580   5.284   8.843   6.336
 9272W        W16581   1.341   7.939   9.335
 9273W        W16582   1.564   1.315   6.628
 9274W        W16583  12.088   9.312   5.904
 9275W        W16584  11.821   4.884   6.001
 9276W        W16585  10.242   1.281   9.920
 9277W        W16586  17.690   0.439   0.195
 9278W        W16587  15.411   3.728   9.400
 9279W        W16588  10.520   5.434   0.404
 9280W        W16589   5.838   6.511   9.753
 9281W        W16590  19.785   1.173   8.063
 9282W        W16591   8.998   2.788   9.642
 9283W        W16592  13.410   9.640   0.222
 9284W        W16593  15.610   5.909   7.895
 9285W        W16594  15.371   9.228   7.815
 9286W        W16595  13.576   7.654   0.170
 9287W        W16596   6.522   5.873   7.439
 9288W        W16597  15.204   9.876   9.801
 9289W        W16598  13.543   6.428   8.400
 9290W        W16599   7.438   3.246   6.576
 9291W        W16600   6.656   2.463   9.793
 9292W        W16601   3.108   3.828   6.442
 9293W        W16602   4.610   1.943   7.542
 9294W        W16603   2.641   7.362   0.152
 9295W        W16604  10.902   4.473   8.857
 9296W        W16605  13.035   0.825   8.340
 9297W        W16606   6.292   0.334   7.733
 9298W        W16607   1.256   9.843   8.793
 9299W        W16608  16.970   3.022   0.859
 9300W        W16609  10.524   1.950   8.563
 9301W        W16610   8.627   8.364   8.220
 9302W        W16611  14.328   9.883   9.224
 9303W        W16612  11.015   1.600   9.753
 9304W        W16613  18.525   6.746   9.078
 9305W        W16614   7.636   4.878   8.445
 9306W        W16615  13.583   3.276   6.947
 9307W        W16616  10.159   1.223   7.991
 9308W        W16617   3.882   6.731   6.337
 9309W        W16618  19.369   6.958   9.553
 9310W        W16619   9.482   0.793   9.341
 9311W        W16620  14.354   9.380   7.909
 9312W        W16621   7.621   3.194   9.620
 9313W        W16622  10.205   6.355   0.694
 9314W        W16623  10.610   0.664   7.230
 9315W        W16624  15.464   8.711   0.344
 9316W        W16625   5.571   5.509   6.414
 9317W        W16626   0.117   4.028   0.708
 9318W        W16627   1.183   9.780   9.662
 9319W        W16628   9.037   3.026   7.083
 9320W        W16629  17.630   0.382   9.207
 9321W        W16630   9.000   5.150   8.923
 9322W        W16631  13.963   7.999   7.318
 9323W        W16632   4.214   6.912   8.303
 9324W        W16633  15.118   6.287   1.015
 9325W        W16634   9.766   0.201   9.291
 9326W        W16635   2.180   8.031   6.142
 9327W        W16636  12.750   6.079   8.471
 9328W        W16637   8.955   3.634   6.457
 9329W        W16638   7.035   4.624   6.403
 9330W        W16639   8.522   3.544   8.431
 9331W        W16640  15.294   2.544   9.391
 9332W        W16641  15.528   3.637   6.880
 9333W        W16642  16.051   1.462   7.872
 9334W        W16643   2.817   2.594   7.004
 9335W        W16644   3.563   3.575   7.269
 9336W        W16645   0.187   8.189   8.455
 9337W        W16646  16.311   4.894   6.665
 9338W        W16647  17.228   6.973   8.164
 9339W        W16648  10.932   9.360   0.265
 9340W        W16649   0.007   3.025   0.901
 9341W        W16650  13.483   6.155   0.100
 9342W        W16651   6.325   7.456   9.773
 9343W        W16652  11.665   1.229   6.368
 9344W        W16653   0.397   2.720   9.544
 9345W        W16654   7.683   1.669   9.608
 9346W        W16655  18.675   5.082   8.736
 9347W        W16656  19.894   7.002   9.841
 9348W        W16657   3.268   5.165   8.888
 9349W        W16658  15.782   3.194   0.761
 9350W        W16659   2.065   8.367   6.497
 9351W        W16660  16.983   0.269   7.949
 9352W        W16661   6.160   7.056   6.606
 9353W        W16662  19.806   0.533   9.679
 9354W        W16663   5.359   8.369   8.883
 9355W        W16664  12.978   5.521   7.059
 9356W        W16665  10.308   2.067   0.528
 9357W        W16666  17.503   6.871   0.044
 9358W        W16667   6.859   6.617   0.701
 9359W        W16668   1.583   4.865   9.748
 9360W        W16669   0.774   4.690   6.194
 9361W        W16670   0.767   8.276   6.361
 9362W        W16671   1.461   1.786   9.791
 9363W        W16672  12.528   7.881   7.583
 9364W        W16673  15.918   9.759   9.289
 9365W        W16674  11.369   2.339   7.840
 9366W        W16675  14.251   5.390   9.994
 9367W        W16676  17.402   7.878   8.236
 9368W        W16677  18.813   0.351   8.129
 9369W        W16678   8.486   3.027   0.654
 9370W        W16679  14.361   9.869   8.699
 9371W        W16680  17.135   3.306   7.302
 9372W        W16681  19.434   8.742   7.435
 9373W        W16682  14.583   6.283   9.604
 9374W        W16683   5.508   9.299   0.910
 9375W        W16684   0.283   9.349   6.980
 9376W        W16685   4.938   3.418   8.924
 9377W        W16686   4.222   9.979   0.466
 9378W        W16687   4.616   7.590   1.212
 9379W        W16688   3.001   8.612   9.160
 9380W        W16689  17.889   9.913   9.454
 9381W        W16690  13.760   6.822   8.141
 9382W        W16691  17.499   6.257   0.644
 9383W        W16692   0.980   0.800   0.369
 9384W        W16693  12.370   0.594   9.745
 9385W        W16694   5.005   2.105   9.636
 9386W        W16695  18.691   2.687   8.168
 9387W        W16696   6.440   6.936   8.862
 9388W        W16697  17.392   2.591   0.476
 9389W        W16698   5.228   5.925   9.327
 9390W        W16699   6.619   7.177   6.330
 9391W        W16700  13.410   8.755   8.150
 9392W        W16701   7.161   3.063   9.821
 9393W        W16702  15.603   3.854   5.598
 9394W        W16703  14.825   5.962   0.737
 9395W        W16704  18.681   6.452   6.654
 9396W        W16705   0.476   7.043   7.668
 9397W        W16706   6.262   5.000   5.875
 9398W        W16707  13.145   0.382   9.137
 9399W        W16708   9.003   0.090   6.766
 9400W        W16709   8.844   1.170   9.409
 9401W        W16710   2.151   9.952   8.071
 9402W        W16711  10.889   2.075   9.526
 9403W        W16712  11.259   6.609   7.800
 9404W        W16713  13.611   5.991   9.648
 9405W        W16714  13.492   3.631   0.122
 9406W        W16715   4.241   0.795   9.955
 9407W        W16716   9.248   6.495   8.826
 9408W        W16717  11.084   4.668   6.663
 9409W        W16718  14.385   1.595   0.281
 9410W        W16719   2.277   2.725   0.078
 9411W        W16720   0.224   7.150   6.170
 9412W        W16721   6.006   3.712   8.371
 9413W        W16722  19.724   5.997   8.491
 9414W        W16723   5.005   4.493   8.188
 9415W        W16724  17.913   3.588   7.048
 9416W        W16725  15.738   9.741   6.330
 9417W        W16726  17.638   7.869   7.725
 9418W        W16727  17.097   4.583   9.955
 9419W        W16728   0.427   4.123   7.936
 9420W        W16729  18.118   5.380   8.392
 9421W        W16730  16.003   2.155   8.802
 9422W        W16731  12.808   7.908   8.022
 9423W        W16732  17.766   9.372   9.710
 9424W        W16733  19.075   6.308   6.989
 9425W        W16734   0.329   8.409   7.652
 9426W        W16735   6.461   4.260   8.945
 9427W        W16736  15.807   3.156   7.932
 9428W        W16737  19.594   1.151   0.459
 9429W        W16738  11.686   1.189   8.919
 9430W        W16739  13.902   7.252   6.552
 9431W        W16740  15.874   1.793   6.203
 9432W        W16741  13.921   9.810   6.836
 9433W        W16742   9.792   5.034   9.397
 9434W        W16743   1.147   0.173   9.181
 9435W        W16744   5.304   4.091   6.215
 9436W        W16745   1.561   4.401   0.438
 9437W        W16746   8.498   1.033   9.772
 9438W        W16747  10.207   0.714   8.101
 9439W        W16748   0.888   0.388   8.160
 9440W        W16749  10.866   0.796   9.120
 9441W        W16750  18.956   4.838   8.184
 9442W        W16751  12.642   5.543   7.981
 9443W        W16752  17.222   8.738   6.587
 9444W        W16753   9.902   3.105   6.836
 9445W        W16754   6.076   8.558   8.319
 9446W        W16755   9.244   5.473   7.358
 9447W        W16756  10.081   5.992   6.795
 9448W        W16757   2.011   5.958   7.068
 9449W        W16758  13.694   4.922   9.802
 9450W        W16759  11.896   2.260   7.981
 9451W        W16760  19.109   6.114   7.918
 9452W        W16761   6.214   2.689   9.894
 9453W        W16762  11.973   9.376   6.541
 9454W        W16763   5.921   3.407   0.305
 9455W        W16764   7.526   3.572   7.482
 9456W        W16765  18.167   5.087   7.213
 9457W        W16766  15.344   7.366   6.678
 9458W        W16767  17.326   6.429   6.730
 9459W        W16768  18.541   1.159   1.454
 9460W        W16769   0.132   0.727   7.552
 9461W        W16770  15.190   8.893   8.173
 9462W        W16771  11.615   9.268   0.973
 9463W        W16772   6.043   5.024   1.074
 9464W        W16773   7.264   2.385   6.604
 9465W        W16774  15.808   2.514   0.097
 9466W        W16775   4.290   7.203   9.987
 9467W        W16776  12.018   0.828   0.317
 9468W        W16777   4.056   0.396   9.707
 9469W        W16778  19.719   2.260   9.929
 9470W        W16779  11.476   2.536   8.673
 9471W        W16780   9.225   1.628   0.870
 9472W        W16781   5.480   4.473   8.483
 9473W        W16782   1.803   6.969   9.325
 9474W        W16783  13.118   6.854   8.023
 9475W        W16784   5.225   4.719   6.779
 9476W        W16785   0.268   6.055   0.227
 9477W        W16786  14.797   7.018   0.685
 9478W        W16787  16.881   2.032   1.081
 9479W        W16788   1.556   3.130   6.414
 9480W        W16789  19.626   6.372   6.289
 9481W        W16790   5.539   6.268   0.499
 9482W        W16791  15.579   4.235   0.700
 9483W        W16792   2.457   8.676   8.392
 9484W        W16793  13.082   0.023   0.334
 9485W        W16794  11.299   7.036   9.140
 9486W        W16795   8.950   6.058   8.991
 9487W        W16796   2.320   3.027   0.768
 9488W        W16797   6.470   3.761   9.947
 9489W        W16798  11.118   4.480   7.905
 9490W        W16799  13.135   8.444   0.631
 9491W        W16800   1.327   1.102   9.252
 9492W        W16801  18.652   2.131   7.377
 9493W        W16802   5.313   7.232   6.124
 9494W        W16803  16.020   5.981   0.093
 9495W        W16804  19.377   8.417   6.477
 9496W        W16805   8.636   5.746   7.479
 9497W        W16806  19.474   5.930   6.988
 9498W        W16807   6.335   2.002   8.097
 9499W        W16808  12.812   3.184   9.123
 9500W        W16809   9.885   6.864   9.673
 9501W        W16810  12.562   1.495   6.986
 9502W        W16811  13.310   3.191   9.327
 9503W        W16812  19.907   4.944   0.198
 9504W        W16813  18.870   7.859   0.227
 9505W        W16814   5.698   0.972   7.508
 9506W        W16815  16.471   0.271   6.221
 9507W        W16816  12.701   1.503   9.258
 9508W        W16817   2.847   2.946   0.748
 9509W        W16818   8.547   3.254   7.988
 9510W        W16819   9.499   5.472   9.415
 9511W        W16820  12.953   4.201   6.580
 9512W        W16821  17.613   5.149   7.686
 9513W        W16822   0.470   6.382   9.053
 9514W        W16823   8.828   0.858   0.123
 9515W        W16824   5.549   3.465   9.598
 9516W        W16825   8.073   9.974   6.413
 9517W        W16826  17.681   9.090   7.996
 9518W        W16827  11.071   0.603   0.004
 9519W        W16828   0.301   6.865   0.139
 9520W        W16829  17.731   2.761   7.196
 9521W        W16830   3.500   2.039   7.837
 9522W        W16831   8.011   8.470   7.437
 9523W        W16832  17.373   9.320   6.952
 9524W        W16833  10.084   2.468   6.398
 9525W        W16834  10.595   7.314   8.098
 9526W        W16835  11.978   4.697   6.970
 9527W        W16836  18.236   8.899   6.864
 9528W        W16837  18.687   1.737   8.686
 9529W        W16838   0.773   9.862   9.944
 9530W        W16839  19.932   4.954   9.272
 9531W        W16840  19.119   2.094   7.131
 9532W        W16841   2.234   2.622   8.298
 9533W        W16842   3.290   2.237   8.745
 9534W        W16843   0.584   3.821   8.775
 9535W        W16844  19.642   7.843   8.867
 9536W        W16845   2.568   3.080   0.313
 9537W        W16846  14.165   8.490   8.799
 9538W        W16847  16.955   6.503   8.047
 9539W        W16848   9.955   3.984   5.741
 9540W        W16849   3.969   7.680   9.162
 9541W        W16850   5.704   1.089   9.294
 9542W        W16851  14.960   5.496   9.576
 9543W        W16852  15.569   6.263   7.046
 9544W        W16853  16.691   0.212   9.773
 9545W        W16854   4.663   9.739   8.682
 9546W        W16855  16.403   2.401   0.692
 9547W        W16856   0.659   0.421   7.016
 9548W        W16857   3.242   9.815   9.971
 9549W        W16858   1.273   4.505   7.458
 9550W        W16859   2.807   8.934   7.492
 9551W        W16860  15.749   1.665   9.714
 9552W        W16861  17.141   9.022   8.961
 9553W        W16862  15.553   4.435   8.002
 9554W        W16863  18.718   4.931   7.422
 9555W        W16864   2.337   2.499   6.224
 9556W        W16865   7.588   3.737   6.452
 9557W        W16866   3.696   9.288   9.390
 9558W        W16867   3.292   6.320   7.540
 9559W        W16868  13.574   8.082   7.000
 9560W        W16869   3.989   1.463   7.850
 9561W        W16870  12.969   1.501   6.068
 9562W        W16871   9.578   6.587   9.306
 9563W        W16872  14.075   8.035   9.668
 9564W        W16873  12.238   9.979   8.579
 9565W        W16874  10.246   5.012   0.303
 9566W        W16875   8.622   0.746   6.150
 9567W        W16876   9.574   4.343   8.793
 9568W        W16877  17.557   7.777   6.951
 9569W        W16878   4.040   4.575   9.372
 9570W        W16879   6.176   8.431   1.197
 9571W        W16880   2.254   7.267   7.328
 9572W        W16881   7.843   9.354   7.751
 9573W        W16882   8.303   8.279   6.207
 9574W        W16883  19.043   8.784   6.629
 9575W        W16884  14.871   2.424   6.283
 9576W        W16885   5.202   4.787   7.308
 9577W        W16886  13.326   2.691   8.568
 9578W        W16887  19.330   6.105   9.871
 9579W        W16888  12.942   8.407   9.127
 9580W        W16889   7.874   3.860   7.213
 9581W        W16890  16.381   7.121   8.051
 9582W        W16891   9.352   6.423   7.421
 9583W        W16892  18.110   0.214   9.876
 9584W        W16893  15.874   4.900   7.517
 9585W        W16894   2.988   5.975   7.284
 9586W        W16895  15.030   5.886   0.288
 9587W        W16896  12.278   9.407   0.442
 9588W        W16897   6.012   4.003   7.664
 9589W        W16898  10.096   4.192   7.107
 9590W        W16899  14.015   5.102   7.971
 9591W        W16900   5.476   2.476   9.487
 9592W        W16901   5.072   8.468   6.600
 9593W        W16902  10.192   4.417   7.592
 9594W        W16903  16.673   3.462   9.581
 9595W        W16904   6.764   7.483   0.070
 9596W        W16905  12.089   5.243   0.124
 9597W        W16906  14.800   2.399   6.806
 9598W        W16907   6.679   1.590   0.964
 9599W        W16908  17.444   2.008   6.397
 9600W        W16909   4.888   7.356   9.872
 9601W        W16910  16.045   4.442   7.746
 9602W        W16911   4.449   2.577   6.351
 9603W        W16912  15.582   2.294   8.057
 9604W        W16913  13.091   6.012   7.112
 9605W        W16914  18.860   0.697   9.425
 9606W        W16915  16.284   3.983   8.177
 9607W        W16916  18.598   5.385   0.102
 9608W        W16917  10.282   1.080   6.402
 9609W        W16918  12.853   7.058   8.404
 9610W        W16919   4.200   4.206   7.268
 9611W        W16920  10.446   7.792   8.009
 9612W        W16921  18.655   1.270   8.939
 9613W        W16922  16.506   8.478   6.427
 9614W        W16923   0.955   8.411   0.690
 9615W        W16924  14.038   7.870   0.224
 9616W        W16925   9.750   7.721   8.618
 9617W        W16926  15.256   1.339   7.930
 9618W        W16927  16.397   1.312   9.759
 9619W        W16928   9.266   4.722   8.903
 9620W        W16929  13.437   4.443   8.084
 9621W        W16930   2.489   0.409   9.609
 9622W        W16931   3.996   0.330   0.776
 9623W        W16932  14.899   4.555   9.207
 9624W        W16933  14.046   2.131   9.744
 9625W        W16934   6.647   7.220   7.337
 9626W        W16935  18.078   3.769   7.894
 9627W        W16936  17.498   7.749   9.484
 9628W        W16937  16.868   1.141   8.458
 9629W        W16938  12.602   3.511   8.622
 9630W        W16939   0.081   5.513   9.935
 9631W        W16940  18.598   6.054   7.845
 9632W        W16941   8.127   6.312   9.569
 9633W        W16942  15.253   0.825   7.788
 9634W        W16943  10.192   1.469   6.742
 9635W        W16944  16.826   3.446   9.092
 9636W        W16945   3.457   1.162   0.536
 9637W        W16946  18.114   0.368   9.386
 9638W        W16947  18.115   6.641   9.393
 9639W        W16948  13.639   3.231   6.017
 9640W        W16949  13.893   6.924   0.482
 9641W        W16950   4.121   7.632   0.263
 9642W        W16951   0.390   8.375   8.888
 9643W        W16952  11.357   1.564   7.582
 9644W        W16953  10.422   5.624   6.636
 9645W        W16954   7.207   5.545   7.998
 9646W        W16955   5.962   1.368   8.822
 9647W        W16956  10.821   8.760   8.182
 9648W        W16957  14.520   0.124   0.953
 9649W        W16958   7.955   8.406   9.237
 9650W        W16959   8.005   4.511   6.932
 9651W        W16960  13.515   4.014   8.340
 9652W        W16961   2.681   5.423   6.998
 9653W        W16962  11.285   7.473   7.476
 9654W        W16963   9.387   3.890   6.621
 9655W        W16964  15.016   0.804   0.246
 9656W        W16965   7.957   3.190   6.612
 9657W        W16966   7.683   8.121   9.562
 9658W        W16967   4.715   0.817   0.782
 9659W        W16968  14.152   5.167   0.517
 9660W        W16969  18.231   5.981   7.473
 9661W        W16970  15.890   4.105   6.904
 9662W        W16971   4.171   2.314   9.291
 9663W        W16972  10.383   0.303   6.596
 9664W        W16973   1.265   4.060   7.698
 9665W        W16974   8.528   9.078   9.738
 9666W        W16975  10.972   7.744   9.829
 9667W        W16976  16.719   3.632   0.073
 9668W        W16977  15.350   5.180   8.698
 9669W        W16978  16.736   0.480   0.508
 9670W        W16979  19.412   6.853   6.156
 9671W        W16980  17.314   2.166   9.731
 9672W        W16981  17.499   7.304   9.782
 9673W        W16982  17.416   0.802   8.970
 9674W        W16983  15.862   8.813   6.531
 9675W        W16984  10.609   6.135   7.509
 9676W        W16985  16.809   4.398   0.833
 9677W        W16986  11.762   6.524   8.826
 9678W        W16987   5.444   9.213   6.039
 9679W        W16988   4.781   6.015   7.017
 9680W        W16989   6.394   9.696   8.526
 9681W        W16990  14.975   5.172   7.961
 9682W        W16991   5.111   9.490   8.580
 9683W        W16992  10.174   1.769   0.933
 9684W        W16993  15.102   6.146   6.849
 9685W        W16994  16.270   4.589   5.812
 9686W        W16995   2.358   8.780   0.412
 9687W        W16996  18.822   6.996   0.856
 9688W        W16997  15.274   7.639   7.109
 9689W        W16998   7.360   8.426   9.864
 9690W        W16999   2.625   5.072   7.779
 9691W        W17000   3.860   3.126   9.765
 9692W        W17001  12.592   9.772   7.075
 9693W        W17002  10.023   5.313   9.023
 9694W        W17003  15.777   7.673   7.775
 9695W        W17004   0.780   2.982   6.264
 9696W        W17005   4.272   4.066   0.322
 9697W        W17006   3.112   2.942   6.227
 9698W        W17007   3.794   8.881   0.688
 9699ION     NA17008  15.530   6.116   8.700
 9700ION     NA17009  17.018   6.545   9.411
 9701ION     NA17010   5.800   3.083   8.818
  20.00000  10.00000  10.00000
