Protein in INSANE! Membrane UpperLeaflet>DOPC=1 LowerLeaflet>DOPC=1
17010
    1PF10C   C1    1  10.194   3.995   5.313
    1PF10C   F2    2  10.149   3.766   5.293
    1PF10C   F3    3  10.152   3.726   5.509
    1PF10C   F4    4  10.115   3.500   5.510
    1PF10C   F5    5   9.970   3.504   5.675
    1PF10C   F6    6  10.049   3.317   5.783
    1PF10C   F7    7  10.021   3.398   5.985
    1PF10C   F8    8   9.942   3.204   6.078
    1PF10C   F9    9   9.777   3.299   6.189
    1PF10C  F10   10   9.689   3.405   6.005
    2PF10C   C1   11  11.361   5.431   5.846
    2PF10C   F2   12  11.307   5.272   6.010
    2PF10C   F3   13  11.509   5.186   6.024
    2PF10C   F4   14  11.501   5.098   6.237
    2PF10C   F5   15  11.704   5.162   6.290
    2PF10C   F6   16  11.757   4.976   6.414
    2PF10C   F7   17  11.872   5.089   6.564
    2PF10C   F8   18  11.794   4.979   6.750
    2PF10C   F9   19  11.774   5.162   6.871
    2PF10C  F10   20  11.709   5.055   7.064
    3PF10C   C1   21   8.398   7.422   4.618
    3PF10C   F2   22   8.405   7.290   4.812
    3PF10C   F3   23   8.573   7.162   4.750
    3PF10C   F4   24   8.547   6.986   4.895
    3PF10C   F5   25   8.761   6.954   4.939
    3PF10C   F6   26   8.733   6.897   5.160
    3PF10C   F7   27   8.877   6.731   5.157
    3PF10C   F8   28   8.963   6.765   5.368
    3PF10C   F9   29   8.982   6.551   5.417
    3PF10C  F10   30   9.019   6.577   5.642
    4DOPC   NC3   31   0.770   5.621   5.873
    4DOPC   PO4   32   1.039   5.404   5.652
    4DOPC   GL1   33   1.181   5.463   5.215
    4DOPC   GL2   34   1.461   5.542   5.309
    4DOPC   C1A   35   1.225   5.453   4.761
    4DOPC   D2A   36   1.146   5.576   4.270
    4DOPC   C3A   37   0.830   5.570   3.906
    4DOPC   C4A   38   0.782   5.668   3.416
    4DOPC   C1B   39   1.639   5.766   4.945
    4DOPC   D2B   40   1.740   6.033   4.512
    4DOPC   C3B   41   1.475   6.038   4.108
    4DOPC   C4B   42   1.121   5.949   3.760
    5DOPC   NC3   43  10.350   3.951   6.053
    5DOPC   PO4   44  10.535   3.840   5.709
    5DOPC   GL1   45  10.512   3.644   5.285
    5DOPC   GL2   46  10.822   3.651   5.300
    5DOPC   C1A   47  10.408   3.537   4.829
    5DOPC   D2A   48  10.409   3.487   4.307
    5DOPC   C3A   49  10.331   3.609   3.833
    5DOPC   C4A   50  10.027   3.791   3.461
    5DOPC   C1B   51  10.910   3.429   4.909
    5DOPC   D2B   52  10.833   3.209   4.454
    5DOPC   C3B   53  10.752   3.296   3.982
    5DOPC   C4B   54  10.733   3.422   3.501
    6DOPC   NC3   55  15.129   9.097   5.817
    6DOPC   PO4   56  14.857   9.351   5.650
    6DOPC   GL1   57  14.948   9.270   5.195
    6DOPC   GL2   58  14.991   8.990   5.320
    6DOPC   C1A   59  14.955   9.174   4.740
    6DOPC   D2A   60  14.955   8.969   4.266
    6DOPC   C3A   61  15.122   9.000   3.828
    6DOPC   C4A   62  15.477   9.242   3.571
    6DOPC   C1B   63  15.030   8.722   4.962
    6DOPC   D2B   64  15.089   8.514   4.506
    6DOPC   C3B   65  14.834   8.450   4.114
    6DOPC   C4B   66  14.468   8.451   3.776
    7DOPC   NC3   67  15.862   7.886   5.842
    7DOPC   PO4   68  16.246   7.768   5.778
    7DOPC   GL1   69  16.100   7.549   5.489
    7DOPC   GL2   70  15.801   7.609   5.468
    7DOPC   C1A   71  16.195   7.727   5.102
    7DOPC   D2A   72  16.106   7.620   4.628
    7DOPC   C3A   73  16.167   7.819   4.206
    7DOPC   C4A   74  16.252   8.048   3.767
    7DOPC   C1B   75  15.693   7.820   5.071
    7DOPC   D2B   76  15.661   7.876   4.555
    7DOPC   C3B   77  15.827   8.197   4.231
    7DOPC   C4B   78  16.005   8.492   3.858
    8DOPC   NC3   79   1.048   4.800   5.722
    8DOPC   PO4   80   0.702   4.990   5.675
    8DOPC   GL1   81   0.780   5.100   5.254
    8DOPC   GL2   82   1.061   5.056   5.332
    8DOPC   C1A   83   0.835   5.111   4.805
    8DOPC   D2A   84   0.815   5.178   4.290
    8DOPC   C3A   85   0.892   5.087   3.812
    8DOPC   C4A   86   0.904   5.104   3.295
    8DOPC   C1B   87   1.351   5.016   5.007
    8DOPC   D2B   88   1.702   5.205   4.696
    8DOPC   C3B   89   1.627   5.352   4.249
    8DOPC   C4B   90   1.387   5.452   3.827
    9DOPC   NC3   91  12.861   9.146   6.109
    9DOPC   PO4   92  12.927   9.015   5.738
    9DOPC   GL1   93  12.822   9.214   5.363
    9DOPC   GL2   94  12.595   9.025   5.315
    9DOPC   C1A   95  13.016   9.275   4.953
    9DOPC   D2A   96  13.149   9.329   4.466
    9DOPC   C3A   97  13.163   8.965   4.159
    9DOPC   C4A   98  13.191   8.634   3.788
    9DOPC   C1B   99  12.563   9.019   4.860
    9DOPC   D2B  100  12.701   9.056   4.376
    9DOPC   C3B  101  12.490   8.949   3.970
    9DOPC   C4B  102  12.256   9.017   3.541
   10DOPC   NC3  103   2.513   6.656   6.098
   10DOPC   PO4  104   2.638   6.311   5.941
   10DOPC   GL1  105   2.710   6.271   5.516
   10DOPC   GL2  106   3.011   6.297   5.547
   10DOPC   C1A  107   2.599   6.353   5.083
   10DOPC   D2A  108   2.700   6.396   4.573
   10DOPC   C3A  109   2.574   6.410   4.112
   10DOPC   C4A  110   2.342   6.316   3.684
   10DOPC   C1B  111   3.110   6.479   5.143
   10DOPC   D2B  112   3.161   6.656   4.666
   10DOPC   C3B  113   3.036   6.654   4.216
   10DOPC   C4B  114   2.942   6.577   3.736
   11DOPC   NC3  115  11.116   0.589   6.012
   11DOPC   PO4  116  10.817   0.378   5.858
   11DOPC   GL1  117  10.881   0.573   5.515
   11DOPC   GL2  118  11.185   0.529   5.506
   11DOPC   C1A  119  10.857   0.610   5.090
   11DOPC   D2A  120  11.016   0.588   4.609
   11DOPC   C3A  121  11.040   0.359   4.192
   11DOPC   C4A  122  10.963   0.043   3.818
   11DOPC   C1B  123  11.343   0.395   5.086
   11DOPC   D2B  124  11.429   0.228   4.600
   11DOPC   C3B  125  11.542   0.399   4.166
   11DOPC   C4B  126  11.544   0.695   3.772
   12DOPC   NC3  127  18.753   6.243   5.809
   12DOPC   PO4  128  19.121   6.182   5.653
   12DOPC   GL1  129  18.915   6.230   5.263
   12DOPC   GL2  130  18.736   6.014   5.393
   12DOPC   C1A  131  18.866   6.184   4.809
   12DOPC   D2A  132  18.815   6.220   4.315
   12DOPC   C3A  133  18.724   6.112   3.866
   12DOPC   C4A  134  18.619   6.098   3.373
   12DOPC   C1B  135  18.857   5.746   5.075
   12DOPC   D2B  136  18.936   5.667   4.582
   12DOPC   C3B  137  19.064   5.802   4.141
   12DOPC   C4B  138  19.301   6.019   3.761
   13DOPC   NC3  139   8.865   2.039   5.801
   13DOPC   PO4  140   8.477   2.035   5.710
   13DOPC   GL1  141   8.626   2.131   5.315
   13DOPC   GL2  142   8.761   1.855   5.353
   13DOPC   C1A  143   8.638   2.187   4.860
   13DOPC   D2A  144   8.576   2.290   4.362
   13DOPC   C3A  145   8.890   2.279   4.002
   13DOPC   C4A  146   9.206   2.137   3.627
   13DOPC   C1B  147   8.601   1.694   4.983
   13DOPC   D2B  148   8.568   1.751   4.498
   13DOPC   C3B  149   8.814   1.611   4.129
   13DOPC   C4B  150   8.812   1.391   3.678
   14DOPC   NC3  151   7.679   2.085   5.892
   14DOPC   PO4  152   7.623   1.691   5.969
   14DOPC   GL1  153   7.355   1.609   5.590
   14DOPC   GL2  154   7.348   1.911   5.615
   14DOPC   C1A  155   7.249   1.616   5.156
   14DOPC   D2A  156   7.337   1.739   4.684
   14DOPC   C3A  157   7.242   1.687   4.232
   14DOPC   C4A  158   7.103   1.791   3.785
   14DOPC   C1B  159   7.443   2.082   5.214
   14DOPC   D2B  160   7.693   2.172   4.773
   14DOPC   C3B  161   7.602   2.042   4.325
   14DOPC   C4B  162   7.612   1.903   3.851
   15DOPC   NC3  163  15.392   6.656   6.126
   15DOPC   PO4  164  15.502   6.539   5.760
   15DOPC   GL1  165  15.258   6.545   5.472
   15DOPC   GL2  166  15.041   6.725   5.599
   15DOPC   C1A  167  15.343   6.568   5.043
   15DOPC   D2A  168  15.375   6.671   4.561
   15DOPC   C3A  169  15.455   6.537   4.116
   15DOPC   C4A  170  15.372   6.426   3.645
   15DOPC   C1B  171  14.800   6.645   5.249
   15DOPC   D2B  172  14.839   6.624   4.756
   15DOPC   C3B  173  14.932   6.691   4.302
   15DOPC   C4B  174  15.032   6.774   3.826
   16DOPC   NC3  175  10.324   1.602   5.804
   16DOPC   PO4  176  10.578   1.371   5.587
   16DOPC   GL1  177  10.423   1.389   5.197
   16DOPC   GL2  178  10.317   1.661   5.308
   16DOPC   C1A  179  10.509   1.495   4.771
   16DOPC   D2A  180  10.615   1.734   4.326
   16DOPC   C3A  181  10.626   1.780   3.850
   16DOPC   C4A  182  10.491   1.694   3.377
   16DOPC   C1B  183  10.538   1.931   5.036
   16DOPC   D2B  184  10.887   1.969   4.672
   16DOPC   C3B  185  10.875   2.205   4.256
   16DOPC   C4B  186  10.745   2.346   3.803
   17DOPC   NC3  187   9.872   9.524   5.697
   17DOPC   PO4  188  10.265   9.515   5.601
   17DOPC   GL1  189  10.116   9.598   5.186
   17DOPC   GL2  190   9.849   9.686   5.257
   17DOPC   C1A  191  10.039   9.663   4.747
   17DOPC   D2A  192   9.795   9.528   4.333
   17DOPC   C3A  193   9.777   9.626   3.881
   17DOPC   C4A  194   9.877   9.873   3.478
   17DOPC   C1B  195   9.537   9.650   4.908
   17DOPC   D2B  196   9.183   9.757   4.560
   17DOPC   C3B  197   9.318   9.658   4.121
   17DOPC   C4B  198   9.293   9.347   3.735
   18DOPC   NC3  199  13.595   4.016   5.885
   18DOPC   PO4  200  13.952   4.110   5.735
   18DOPC   GL1  201  13.864   4.076   5.312
   18DOPC   GL2  202  13.582   3.989   5.400
   18DOPC   C1A  203  13.811   4.297   4.923
   18DOPC   D2A  204  13.792   4.294   4.425
   18DOPC   C3A  205  13.798   4.064   4.002
   18DOPC   C4A  206  13.736   3.907   3.524
   18DOPC   C1B  207  13.345   4.154   5.074
   18DOPC   D2B  208  13.287   4.325   4.608
   18DOPC   C3B  209  13.328   4.256   4.146
   18DOPC   C4B  210  13.355   4.211   3.662
   19DOPC   NC3  211   5.814   2.693   5.939
   19DOPC   PO4  212   6.034   2.386   5.798
   19DOPC   GL1  213   5.956   2.614   5.453
   19DOPC   GL2  214   5.643   2.662   5.480
   19DOPC   C1A  215   6.007   2.611   5.017
   19DOPC   D2A  216   5.860   2.590   4.522
   19DOPC   C3A  217   6.007   2.628   4.073
   19DOPC   C4A  218   6.116   2.618   3.592
   19DOPC   C1B  219   5.410   2.551   5.082
   19DOPC   D2B  220   5.340   2.444   4.574
   19DOPC   C3B  221   5.480   2.568   4.124
   19DOPC   C4B  222   5.680   2.886   3.778
   20DOPC   NC3  223  11.954   8.818   5.775
   20DOPC   PO4  224  11.688   8.529   5.683
   20DOPC   GL1  225  11.681   8.621   5.236
   20DOPC   GL2  226  11.827   8.878   5.312
   20DOPC   C1A  227  11.791   8.645   4.792
   20DOPC   D2A  228  11.937   8.711   4.311
   20DOPC   C3A  229  11.962   8.698   3.838
   20DOPC   C4A  230  11.885   8.717   3.358
   20DOPC   C1B  231  12.028   9.072   4.950
   20DOPC   D2B  232  12.212   9.168   4.490
   20DOPC   C3B  233  12.038   9.169   4.049
   20DOPC   C4B  234  11.773   9.151   3.630
   21DOPC   NC3  235   0.542   7.442   5.894
   21DOPC   PO4  236   0.484   7.814   5.758
   21DOPC   GL1  237   0.711   7.748   5.385
   21DOPC   GL2  238   0.660   7.438   5.415
   21DOPC   C1A  239   0.575   7.823   4.975
   21DOPC   D2A  240   0.450   7.835   4.509
   21DOPC   C3A  241   0.633   7.783   4.091
   21DOPC   C4A  242   0.306   7.585   3.816
   21DOPC   C1B  243   0.537   7.301   4.995
   21DOPC   D2B  244   0.434   7.293   4.503
   21DOPC   C3B  245   0.545   7.183   4.061
   21DOPC   C4B  246   0.525   6.961   3.624
   22DOPC   NC3  247   7.318   3.743   5.674
   22DOPC   PO4  248   6.991   3.524   5.733
   22DOPC   GL1  249   6.974   3.672   5.338
   22DOPC   GL2  250   7.156   3.422   5.271
   22DOPC   C1A  251   6.959   3.700   4.910
   22DOPC   D2A  252   7.076   3.526   4.457
   22DOPC   C3A  253   7.094   3.529   3.996
   22DOPC   C4A  254   6.883   3.822   3.671
   22DOPC   C1B  255   7.401   3.470   4.894
   22DOPC   D2B  256   7.566   3.675   4.474
   22DOPC   C3B  257   7.594   3.404   4.096
   22DOPC   C4B  258   7.530   3.020   3.787
   23DOPC   NC3  259  14.577   2.669   5.619
   23DOPC   PO4  260  14.222   2.569   5.777
   23DOPC   GL1  261  14.083   2.645   5.374
   23DOPC   GL2  262  14.148   2.936   5.432
   23DOPC   C1A  263  14.235   2.607   4.944
   23DOPC   D2A  264  14.213   2.534   4.440
   23DOPC   C3A  265  14.236   2.661   3.991
   23DOPC   C4A  266  14.487   2.602   3.569
   23DOPC   C1B  267  14.359   3.120   5.085
   23DOPC   D2B  268  14.518   3.233   4.621
   23DOPC   C3B  269  14.337   3.173   4.192
   23DOPC   C4B  270  14.183   3.125   3.715
   24DOPC   NC3  271   1.018   7.366   6.047
   24DOPC   PO4  272   0.981   7.610   5.737
   24DOPC   GL1  273   1.154   7.509   5.412
   24DOPC   GL2  274   1.228   7.234   5.461
   24DOPC   C1A  275   1.013   7.547   5.010
   24DOPC   D2A  276   0.876   7.555   4.525
   24DOPC   C3A  277   1.024   7.441   4.089
   24DOPC   C4A  278   1.186   7.664   3.679
   24DOPC   C1B  279   1.370   7.115   5.071
   24DOPC   D2B  280   1.547   6.984   4.618
   24DOPC   C3B  281   1.614   7.085   4.160
   24DOPC   C4B  282   1.433   7.218   3.718
   25DOPC   NC3  283   6.790   6.505   5.710
   25DOPC   PO4  284   6.908   6.895   5.700
   25DOPC   GL1  285   6.824   7.125   5.361
   25DOPC   GL2  286   6.929   7.386   5.477
   25DOPC   C1A  287   6.906   7.068   4.916
   25DOPC   D2A  288   6.921   6.917   4.427
   25DOPC   C3A  289   6.984   7.083   3.981
   25DOPC   C4A  290   6.959   7.363   3.560
   25DOPC   C1B  291   7.051   7.535   5.071
   25DOPC   D2B  292   7.108   7.426   4.573
   25DOPC   C3B  293   7.086   7.604   4.122
   25DOPC   C4B  294   7.193   7.841   3.689
   26DOPC   NC3  295  17.840   5.142   6.102
   26DOPC   PO4  296  17.989   4.963   5.772
   26DOPC   GL1  297  18.120   5.139   5.369
   26DOPC   GL2  298  18.259   4.881   5.289
   26DOPC   C1A  299  18.123   5.274   4.942
   26DOPC   D2A  300  18.135   5.452   4.465
   26DOPC   C3A  301  17.965   5.248   4.078
   26DOPC   C4A  302  17.663   5.044   3.737
   26DOPC   C1B  303  18.409   4.851   4.841
   26DOPC   D2B  304  18.496   4.792   4.334
   26DOPC   C3B  305  18.512   4.886   3.855
   26DOPC   C4B  306  18.432   4.824   3.352
   27DOPC   NC3  307  18.755   1.341   5.889
   27DOPC   PO4  308  18.590   1.038   5.692
   27DOPC   GL1  309  18.615   1.336   5.366
   27DOPC   GL2  310  18.925   1.367   5.458
   27DOPC   C1A  311  18.690   1.362   4.921
   27DOPC   D2A  312  18.847   1.499   4.466
   27DOPC   C3A  313  18.708   1.348   4.058
   27DOPC   C4A  314  18.623   1.122   3.630
   27DOPC   C1B  315  19.167   1.323   5.090
   27DOPC   D2B  316  19.277   1.236   4.602
   27DOPC   C3B  317  19.195   1.266   4.128
   27DOPC   C4B  318  19.087   1.362   3.647
   28DOPC   NC3  319   5.019   6.306   5.896
   28DOPC   PO4  320   4.702   6.511   5.745
   28DOPC   GL1  321   4.465   6.394   5.427
   28DOPC   GL2  322   4.180   6.381   5.531
   28DOPC   C1A  323   4.508   6.240   5.015
   28DOPC   D2A  324   4.443   6.070   4.556
   28DOPC   C3A  325   4.409   6.298   4.151
   28DOPC   C4A  326   4.503   6.574   3.742
   28DOPC   C1B  327   4.023   6.339   5.098
   28DOPC   D2B  328   3.941   6.214   4.601
   28DOPC   C3B  329   3.906   6.440   4.179
   28DOPC   C4B  330   3.905   6.704   3.759
   29DOPC   NC3  331  12.994   5.108   5.871
   29DOPC   PO4  332  12.798   5.459   5.828
   29DOPC   GL1  333  12.942   5.306   5.436
   29DOPC   GL2  334  12.683   5.143   5.452
   29DOPC   C1A  335  13.108   5.059   5.099
   29DOPC   D2A  336  13.261   4.877   4.650
   29DOPC   C3A  337  13.163   5.033   4.201
   29DOPC   C4A  338  13.016   5.063   3.722
   29DOPC   C1B  339  12.610   5.048   5.019
   29DOPC   D2B  340  12.773   5.023   4.538
   29DOPC   C3B  341  12.674   4.892   4.082
   29DOPC   C4B  342  12.460   4.806   3.635
   30DOPC   NC3  343   2.789   3.099   5.801
   30DOPC   PO4  344   2.397   3.210   5.754
   30DOPC   GL1  345   2.354   3.262   5.315
   30DOPC   GL2  346   2.458   3.555   5.342
   30DOPC   C1A  347   2.507   3.221   4.898
   30DOPC   D2A  348   2.759   3.355   4.484
   30DOPC   C3A  349   2.483   3.221   4.140
   30DOPC   C4A  350   2.235   3.219   3.720
   30DOPC   C1B  351   2.504   3.789   4.955
   30DOPC   D2B  352   2.602   4.001   4.497
   30DOPC   C3B  353   2.694   3.726   4.115
   30DOPC   C4B  354   2.931   3.340   3.892
   31DOPC   NC3  355   0.315   3.958   5.830
   31DOPC   PO4  356   0.217   4.306   6.001
   31DOPC   GL1  357   0.118   4.518   5.580
   31DOPC   GL2  358   0.142   4.240   5.511
   31DOPC   C1A  359   0.158   4.544   5.118
   31DOPC   D2A  360   0.364   4.470   4.651
   31DOPC   C3A  361   0.240   4.401   4.192
   31DOPC   C4A  362  19.988   4.395   3.748
   31DOPC   C1B  363   0.497   4.190   5.257
   31DOPC   D2B  364   0.734   4.140   4.815
   31DOPC   C3B  365   0.769   4.217   4.356
   31DOPC   C4B  366   0.868   4.263   3.876
   32DOPC   NC3  367   3.520   2.268   6.017
   32DOPC   PO4  368   3.731   2.322   5.683
   32DOPC   GL1  369   3.682   2.165   5.292
   32DOPC   GL2  370   3.867   1.921   5.366
   32DOPC   C1A  371   3.607   2.175   4.846
   32DOPC   D2A  372   3.295   2.090   4.450
   32DOPC   C3A  373   3.302   1.994   3.987
   32DOPC   C4A  374   3.684   1.819   3.730
   32DOPC   C1B  375   3.976   1.796   4.950
   32DOPC   D2B  376   3.956   1.762   4.453
   32DOPC   C3B  377   3.779   2.094   4.168
   32DOPC   C4B  378   3.593   2.379   3.800
   33DOPC   NC3  379   8.531   0.394   5.761
   33DOPC   PO4  380   8.477   0.786   5.666
   33DOPC   GL1  381   8.457   0.752   5.208
   33DOPC   GL2  382   8.627   0.502   5.293
   33DOPC   C1A  383   8.542   0.709   4.770
   33DOPC   D2A  384   8.732   0.474   4.365
   33DOPC   C3A  385   8.694   0.594   3.910
   33DOPC   C4A  386   8.676   0.491   3.423
   33DOPC   C1B  387   8.896   0.372   4.962
   33DOPC   D2B  388   9.192   0.271   4.560
   33DOPC   C3B  389   9.064   0.135   4.126
   33DOPC   C4B  390   8.749   0.115   3.742
   34DOPC   NC3  391  10.410   6.557   5.963
   34DOPC   PO4  392  10.386   6.201   5.774
   34DOPC   GL1  393  10.767   6.251   5.561
   34DOPC   GL2  394  10.792   6.552   5.590
   34DOPC   C1A  395  10.685   6.222   5.122
   34DOPC   D2A  396  10.658   6.279   4.616
   34DOPC   C3A  397  10.653   6.272   4.131
   34DOPC   C4A  398  10.783   6.475   3.690
   34DOPC   C1B  399  10.838   6.701   5.136
   34DOPC   D2B  400  10.883   6.754   4.621
   34DOPC   C3B  401  10.764   6.766   4.151
   34DOPC   C4B  402  10.490   6.889   3.732
   35DOPC   NC3  403  11.093   1.435   5.808
   35DOPC   PO4  404  10.816   1.718   5.888
   35DOPC   GL1  405  10.769   1.785   5.453
   35DOPC   GL2  406  11.030   1.963   5.488
   35DOPC   C1A  407  10.939   1.628   5.065
   35DOPC   D2A  408  11.312   1.709   4.720
   35DOPC   C3A  409  11.174   1.788   4.266
   35DOPC   C4A  410  11.131   1.985   3.798
   35DOPC   C1B  411  11.213   2.064   5.088
   35DOPC   D2B  412  11.332   2.216   4.619
   35DOPC   C3B  413  11.417   2.226   4.167
   35DOPC   C4B  414  11.582   2.347   3.734
   36DOPC   NC3  415  17.758   7.850   6.008
   36DOPC   PO4  416  17.865   7.716   5.646
   36DOPC   GL1  417  18.070   7.811   5.255
   36DOPC   GL2  418  18.251   7.983   5.449
   36DOPC   C1A  419  18.052   7.971   4.807
   36DOPC   D2A  420  18.003   8.156   4.313
   36DOPC   C3A  421  17.974   8.060   3.830
   36DOPC   C4A  422  17.879   7.900   3.349
   36DOPC   C1B  423  18.493   8.084   5.099
   36DOPC   D2B  424  18.665   7.985   4.640
   36DOPC   C3B  425  18.538   8.096   4.215
   36DOPC   C4B  426  18.434   8.321   3.798
   37DOPC   NC3  427  17.276   1.189   6.270
   37DOPC   PO4  428  17.336   1.158   5.872
   37DOPC   GL1  429  17.554   1.330   5.534
   37DOPC   GL2  430  17.737   1.072   5.514
   37DOPC   C1A  431  17.408   1.403   5.098
   37DOPC   D2A  432  17.382   1.567   4.613
   37DOPC   C3A  433  17.259   1.466   4.161
   37DOPC   C4A  434  16.952   1.182   3.883
   37DOPC   C1B  435  17.695   0.969   5.064
   37DOPC   D2B  436  17.639   0.934   4.566
   37DOPC   C3B  437  17.489   1.015   4.127
   37DOPC   C4B  438  17.413   1.238   3.683
   38DOPC   NC3  439  14.903   9.852   5.763
   38DOPC   PO4  440  14.524   9.766   5.658
   38DOPC   GL1  441  14.644   9.598   5.282
   38DOPC   GL2  442  14.909   9.698   5.318
   38DOPC   C1A  443  14.585   9.483   4.853
   38DOPC   D2A  444  14.566   9.298   4.388
   38DOPC   C3A  445  14.824   9.411   4.001
   38DOPC   C4A  446  14.703   9.458   3.522
   38DOPC   C1B  447  14.888   9.925   4.950
   38DOPC   D2B  448  15.005   0.146   4.513
   38DOPC   C3B  449  15.125   9.838   4.180
   38DOPC   C4B  450  15.337   9.404   4.057
   39DOPC   NC3  451  15.801   6.892   5.893
   39DOPC   PO4  452  16.153   6.838   5.740
   39DOPC   GL1  453  15.982   6.509   5.484
   39DOPC   GL2  454  15.772   6.726   5.431
   39DOPC   C1A  455  15.959   6.355   5.053
   39DOPC   D2A  456  16.102   6.221   4.582
   39DOPC   C3A  457  16.003   6.393   4.150
   39DOPC   C4A  458  15.864   6.563   3.709
   39DOPC   C1B  459  15.823   6.831   5.008
   39DOPC   D2B  460  15.879   6.713   4.531
   39DOPC   C3B  461  15.869   6.914   4.113
   39DOPC   C4B  462  16.059   7.055   3.685
   40DOPC   NC3  463  19.231   8.933   5.710
   40DOPC   PO4  464  19.006   8.617   5.641
   40DOPC   GL1  465  18.830   8.863   5.347
   40DOPC   GL2  466  19.002   9.118   5.348
   40DOPC   C1A  467  18.835   8.789   4.908
   40DOPC   D2A  468  19.083   8.937   4.506
   40DOPC   C3A  469  18.935   8.822   4.087
   40DOPC   C4A  470  18.608   8.802   3.725
   40DOPC   C1B  471  19.015   9.253   4.914
   40DOPC   D2B  472  18.847   9.374   4.453
   40DOPC   C3B  473  19.001   9.321   4.013
   40DOPC   C4B  474  19.167   9.025   3.642
   41DOPC   NC3  475  17.514   0.264   5.751
   41DOPC   PO4  476  17.652   0.605   5.600
   41DOPC   GL1  477  17.410   0.436   5.301
   41DOPC   GL2  478  17.159   0.465   5.488
   41DOPC   C1A  479  17.406   0.542   4.864
   41DOPC   D2A  480  17.382   0.531   4.358
   41DOPC   C3A  481  17.386   0.222   4.002
   41DOPC   C4A  482  17.600   9.971   3.634
   41DOPC   C1B  483  17.127   0.824   5.235
   41DOPC   D2B  484  17.163   1.028   4.772
   41DOPC   C3B  485  17.045   0.908   4.323
   41DOPC   C4B  486  17.182   0.710   3.876
   42DOPC   NC3  487   0.752   8.228   5.848
   42DOPC   PO4  488   0.723   8.229   5.456
   42DOPC   GL1  489   0.494   8.461   5.179
   42DOPC   GL2  490   0.255   8.268   5.232
   42DOPC   C1A  491   0.575   8.375   4.737
   42DOPC   D2A  492   0.455   8.286   4.240
   42DOPC   C3A  493   0.612   8.216   3.795
   42DOPC   C4A  494   0.961   8.076   3.471
   42DOPC   C1B  495   0.137   8.107   4.822
   42DOPC   D2B  496   0.018   8.011   4.329
   42DOPC   C3B  497   0.098   8.076   3.862
   42DOPC   C4B  498   0.128   8.208   3.377
   43DOPC   NC3  499   1.694   2.033   5.926
   43DOPC   PO4  500   1.581   1.681   5.769
   43DOPC   GL1  501   1.742   1.904   5.419
   43DOPC   GL2  502   2.023   1.958   5.559
   43DOPC   C1A  503   1.770   2.014   4.965
   43DOPC   D2A  504   1.777   2.126   4.463
   43DOPC   C3A  505   1.698   2.091   3.989
   43DOPC   C4A  506   1.719   2.047   3.484
   43DOPC   C1B  507   2.251   2.108   5.177
   43DOPC   D2B  508   2.247   2.287   4.681
   43DOPC   C3B  509   2.217   2.200   4.199
   43DOPC   C4B  510   2.173   1.952   3.758
   44DOPC   NC3  511  12.989   0.614   5.914
   44DOPC   PO4  512  12.591   0.537   5.906
   44DOPC   GL1  513  12.572   0.559   5.492
   44DOPC   GL2  514  12.784   0.788   5.516
   44DOPC   C1A  515  12.467   0.481   5.070
   44DOPC   D2A  516  12.381   0.427   4.579
   44DOPC   C3A  517  12.435   0.438   4.108
   44DOPC   C4A  518  12.403   0.436   3.608
   44DOPC   C1B  519  12.825   0.832   5.100
   44DOPC   D2B  520  12.814   0.686   4.626
   44DOPC   C3B  521  12.878   0.319   4.337
   44DOPC   C4B  522  12.855   0.257   3.840
   45DOPC   NC3  523   6.149   6.651   6.110
   45DOPC   PO4  524   6.470   6.815   5.964
   45DOPC   GL1  525   6.474   6.884   5.523
   45DOPC   GL2  526   6.384   6.602   5.507
   45DOPC   C1A  527   6.436   7.028   5.111
   45DOPC   D2A  528   6.455   7.030   4.613
   45DOPC   C3A  529   6.452   6.725   4.245
   45DOPC   C4A  530   6.448   6.599   3.758
   45DOPC   C1B  531   6.451   6.332   5.158
   45DOPC   D2B  532   6.404   6.160   4.672
   45DOPC   C3B  533   6.419   6.167   4.190
   45DOPC   C4B  534   6.371   6.086   3.709
   46DOPC   NC3  535  12.344   5.588   6.065
   46DOPC   PO4  536  12.254   5.624   5.679
   46DOPC   GL1  537  12.595   5.589   5.394
   46DOPC   GL2  538  12.676   5.862   5.493
   46DOPC   C1A  539  12.724   5.543   4.955
   46DOPC   D2A  540  12.753   5.528   4.440
   46DOPC   C3A  541  12.713   5.427   3.968
   46DOPC   C4A  542  12.587   5.297   3.490
   46DOPC   C1B  543  12.901   6.001   5.127
   46DOPC   D2B  544  13.012   5.941   4.628
   46DOPC   C3B  545  12.872   5.939   4.161
   46DOPC   C4B  546  12.831   6.011   3.665
   47DOPC   NC3  547   7.607   1.221   5.748
   47DOPC   PO4  548   7.214   1.165   5.675
   47DOPC   GL1  549   7.253   1.159   5.227
   47DOPC   GL2  550   7.526   1.289   5.296
   47DOPC   C1A  551   7.227   1.241   4.766
   47DOPC   D2A  552   7.090   1.112   4.302
   47DOPC   C3A  553   7.152   1.077   3.830
   47DOPC   C4A  554   7.290   1.025   3.357
   47DOPC   C1B  555   7.679   1.417   4.907
   47DOPC   D2B  556   7.697   1.129   4.508
   47DOPC   C3B  557   7.552   1.284   4.097
   47DOPC   C4B  558   7.469   1.442   3.639
   48DOPC   NC3  559   6.375   9.472   5.956
   48DOPC   PO4  560   6.057   9.377   5.717
   48DOPC   GL1  561   5.995   9.437   5.275
   48DOPC   GL2  562   6.130   9.725   5.293
   48DOPC   C1A  563   6.188   9.334   4.876
   48DOPC   D2A  564   6.381   9.247   4.418
   48DOPC   C3A  565   6.218   9.404   4.009
   48DOPC   C4A  566   6.153   9.758   3.666
   48DOPC   C1B  567   6.367   9.824   4.894
   48DOPC   D2B  568   6.583   9.733   4.430
   48DOPC   C3B  569   6.584   9.825   3.960
   48DOPC   C4B  570   6.633   9.763   3.461
   49DOPC   NC3  571  14.607   4.839   5.885
   49DOPC   PO4  572  14.520   5.232   5.830
   49DOPC   GL1  573  14.276   5.388   5.508
   49DOPC   GL2  574  14.119   5.106   5.558
   49DOPC   C1A  575  14.388   5.423   5.078
   49DOPC   D2A  576  14.513   5.437   4.582
   49DOPC   C3A  577  14.443   5.312   4.119
   49DOPC   C4A  578  14.419   5.131   3.647
   49DOPC   C1B  579  14.007   5.049   5.136
   49DOPC   D2B  580  14.041   5.220   4.663
   49DOPC   C3B  581  14.031   4.998   4.237
   49DOPC   C4B  582  14.041   4.776   3.784
   50DOPC   NC3  583   3.520   9.632   5.790
   50DOPC   PO4  584   3.836   9.846   5.673
   50DOPC   GL1  585   3.786   9.708   5.257
   50DOPC   GL2  586   3.485   9.674   5.335
   50DOPC   C1A  587   3.815   9.757   4.803
   50DOPC   D2A  588   3.853   9.731   4.286
   50DOPC   C3A  589   3.794   9.790   3.809
   50DOPC   C4A  590   3.745   9.725   3.310
   50DOPC   C1B  591   3.292   9.763   4.972
   50DOPC   D2B  592   3.393   9.642   4.506
   50DOPC   C3B  593   3.388   9.627   4.047
   50DOPC   C4B  594   3.453   9.426   3.607
   51DOPC   NC3  595   9.413   6.319   6.168
   51DOPC   PO4  596   9.439   6.632   5.909
   51DOPC   GL1  597   9.344   6.819   5.468
   51DOPC   GL2  598   9.421   6.527   5.383
   51DOPC   C1A  599   9.225   6.930   5.036
   51DOPC   D2A  600   9.152   6.975   4.522
   51DOPC   C3A  601   9.206   7.142   4.063
   51DOPC   C4A  602   9.260   7.149   3.553
   51DOPC   C1B  603   9.712   6.439   5.016
   51DOPC   D2B  604  10.060   6.301   4.638
   51DOPC   C3B  605  10.128   6.289   4.151
   51DOPC   C4B  606  10.135   6.255   3.643
   52DOPC   NC3  607   1.334   4.040   5.622
   52DOPC   PO4  608   1.462   4.427   5.618
   52DOPC   GL1  609   1.064   4.384   5.432
   52DOPC   GL2  610   1.113   4.627   5.271
   52DOPC   C1A  611   1.140   4.060   5.113
   52DOPC   D2A  612   1.139   3.842   4.645
   52DOPC   C3A  613   1.154   3.907   4.171
   52DOPC   C4A  614   1.323   4.037   3.714
   52DOPC   C1B  615   1.172   4.510   4.842
   52DOPC   D2B  616   1.248   4.437   4.346
   52DOPC   C3B  617   1.184   4.651   3.930
   52DOPC   C4B  618   0.876   4.662   3.535
   53DOPC   NC3  619   4.515   5.200   5.820
   53DOPC   PO4  620   4.507   5.586   5.706
   53DOPC   GL1  621   4.505   5.459   5.303
   53DOPC   GL2  622   4.662   5.204   5.365
   53DOPC   C1A  623   4.287   5.361   4.920
   53DOPC   D2A  624   4.117   5.183   4.484
   53DOPC   C3A  625   4.222   5.336   4.058
   53DOPC   C4A  626   4.610   5.379   3.764
   53DOPC   C1B  627   4.533   4.906   5.035
   53DOPC   D2B  628   4.435   4.774   4.549
   53DOPC   C3B  629   4.433   4.849   4.064
   53DOPC   C4B  630   4.488   4.904   3.560
   54DOPC   NC3  631  17.457   4.874   5.787
   54DOPC   PO4  632  17.526   4.531   5.596
   54DOPC   GL1  633  17.822   4.749   5.381
   54DOPC   GL2  634  17.680   5.024   5.400
   54DOPC   C1A  635  17.921   4.766   4.958
   54DOPC   D2A  636  17.992   4.940   4.498
   54DOPC   C3A  637  17.590   4.928   4.241
   54DOPC   C4A  638  17.259   4.750   3.894
   54DOPC   C1B  639  17.625   5.210   4.985
   54DOPC   D2B  640  17.637   5.395   4.507
   54DOPC   C3B  641  17.446   5.388   4.071
   54DOPC   C4B  642  17.173   5.218   3.692
   55DOPC   NC3  643   8.751   4.527   5.818
   55DOPC   PO4  644   8.389   4.548   5.638
   55DOPC   GL1  645   8.526   4.472   5.249
   55DOPC   GL2  646   8.731   4.285   5.403
   55DOPC   C1A  647   8.519   4.485   4.790
   55DOPC   D2A  648   8.518   4.479   4.278
   55DOPC   C3A  649   8.482   4.055   4.101
   55DOPC   C4A  650   8.331   3.646   3.891
   55DOPC   C1B  651   8.896   4.192   5.021
   55DOPC   D2B  652   8.799   4.124   4.536
   55DOPC   C3B  653   8.975   4.143   4.109
   55DOPC   C4B  654   8.734   4.149   3.676
   56DOPC   NC3  655   7.420   2.814   5.835
   56DOPC   PO4  656   7.296   2.439   5.842
   56DOPC   GL1  657   7.197   2.484   5.417
   56DOPC   GL2  658   7.116   2.782   5.480
   56DOPC   C1A  659   7.392   2.535   5.002
   56DOPC   D2A  660   7.433   2.647   4.499
   56DOPC   C3A  661   7.489   2.552   4.034
   56DOPC   C4A  662   7.548   2.576   3.545
   56DOPC   C1B  663   7.015   2.935   5.077
   56DOPC   D2B  664   7.196   3.067   4.628
   56DOPC   C3B  665   7.169   2.964   4.168
   56DOPC   C4B  666   7.065   2.773   3.719
   57DOPC   NC3  667  11.980   8.077   5.822
   57DOPC   PO4  668  12.233   8.396   5.785
   57DOPC   GL1  669  12.084   8.504   5.401
   57DOPC   GL2  670  11.892   8.241   5.387
   57DOPC   C1A  671  12.247   8.598   4.990
   57DOPC   D2A  672  12.402   8.667   4.505
   57DOPC   C3A  673  12.317   8.421   4.104
   57DOPC   C4A  674  12.075   8.158   3.755
   57DOPC   C1B  675  11.719   8.181   4.977
   57DOPC   D2B  676  11.761   8.241   4.468
   57DOPC   C3B  677  11.663   8.327   4.007
   57DOPC   C4B  678  11.643   8.290   3.501
   58DOPC   NC3  679   3.524   3.245   6.134
   58DOPC   PO4  680   3.289   3.180   5.812
   58DOPC   GL1  681   3.297   2.945   5.428
   58DOPC   GL2  682   3.384   3.237   5.323
   58DOPC   C1A  683   3.395   2.895   5.003
   58DOPC   D2A  684   3.574   3.058   4.560
   58DOPC   C3A  685   3.393   3.262   4.168
   58DOPC   C4A  686   3.458   3.397   3.691
   58DOPC   C1B  687   3.299   3.382   4.887
   58DOPC   D2B  688   3.198   3.652   4.460
   58DOPC   C3B  689   3.215   3.752   3.993
   58DOPC   C4B  690   3.133   3.748   3.498
   59DOPC   NC3  691  16.739   0.524   5.849
   59DOPC   PO4  692  16.469   0.259   5.717
   59DOPC   GL1  693  16.477   0.384   5.307
   59DOPC   GL2  694  16.736   0.527   5.374
   59DOPC   C1A  695  16.518   0.311   4.866
   59DOPC   D2A  696  16.509   0.132   4.393
   59DOPC   C3A  697  16.420   0.206   3.933
   59DOPC   C4A  698  16.359   0.113   3.442
   59DOPC   C1B  699  16.985   0.325   5.068
   59DOPC   D2B  700  17.012   0.210   4.573
   59DOPC   C3B  701  16.898   0.357   4.123
   59DOPC   C4B  702  16.769   0.510   3.652
   60DOPC   NC3  703   7.679   5.075   5.944
   60DOPC   PO4  704   7.350   4.996   5.713
   60DOPC   GL1  705   7.276   5.177   5.306
   60DOPC   GL2  706   6.965   5.181   5.375
   60DOPC   C1A  707   7.381   5.172   4.847
   60DOPC   D2A  708   7.465   5.140   4.342
   60DOPC   C3A  709   7.504   5.336   3.896
   60DOPC   C4A  710   7.477   5.521   3.421
   60DOPC   C1B  711   6.893   5.086   4.941
   60DOPC   D2B  712   6.953   5.057   4.435
   60DOPC   C3B  713   7.119   5.016   3.989
   60DOPC   C4B  714   7.292   5.051   3.517
   61DOPC   NC3  715  18.625   8.827   5.911
   61DOPC   PO4  716  18.774   9.168   5.759
   61DOPC   GL1  717  18.564   9.284   5.409
   61DOPC   GL2  718  18.425   8.996   5.475
   61DOPC   C1A  719  18.522   9.209   4.981
   61DOPC   D2A  720  18.550   8.963   4.545
   61DOPC   C3A  721  18.517   9.141   4.127
   61DOPC   C4A  722  18.251   9.190   3.740
   61DOPC   C1B  723  18.417   8.681   5.151
   61DOPC   D2B  724  18.432   8.452   4.695
   61DOPC   C3B  725  18.352   8.590   4.237
   61DOPC   C4B  726  18.081   8.702   3.825
   62DOPC   NC3  727   0.386   6.828   5.815
   62DOPC   PO4  728   0.271   7.153   5.616
   62DOPC   GL1  729   0.302   6.953   5.230
   62DOPC   GL2  730   0.573   6.849   5.344
   62DOPC   C1A  731   0.235   6.902   4.770
   62DOPC   D2A  732   0.156   6.888   4.261
   62DOPC   C3A  733   0.062   6.679   3.836
   62DOPC   C4A  734   0.105   6.826   3.350
   62DOPC   C1B  735   0.693   6.759   4.935
   62DOPC   D2B  736   0.660   6.809   4.428
   62DOPC   C3B  737   0.603   6.615   3.990
   62DOPC   C4B  738   0.424   6.459   3.538
   63DOPC   NC3  739  12.226   9.736   5.652
   63DOPC   PO4  740  12.459   0.066   5.640
   63DOPC   GL1  741  12.561   0.030   5.208
   63DOPC   GL2  742  12.327   9.826   5.205
   63DOPC   C1A  743  12.563   0.001   4.763
   63DOPC   D2A  744  12.448   9.936   4.267
   63DOPC   C3A  745  12.218   9.719   3.894
   63DOPC   C4A  746  12.088   9.539   3.440
   63DOPC   C1B  747  12.172   9.668   4.795
   63DOPC   D2B  748  11.960   9.597   4.333
   63DOPC   C3B  749  11.598   9.434   4.062
   63DOPC   C4B  750  11.286   9.277   3.693
   64DOPC   NC3  751   9.881   8.295   5.768
   64DOPC   PO4  752   9.496   8.421   5.724
   64DOPC   GL1  753   9.590   8.677   5.345
   64DOPC   GL2  754   9.832   8.482   5.322
   64DOPC   C1A  755   9.506   8.738   4.898
   64DOPC   D2A  756   9.559   8.660   4.395
   64DOPC   C3A  757   9.419   8.507   3.972
   64DOPC   C4A  758   9.423   8.069   3.746
   64DOPC   C1B  759   9.842   8.328   4.889
   64DOPC   D2B  760   9.968   8.235   4.398
   64DOPC   C3B  761   9.903   8.071   3.948
   64DOPC   C4B  762   9.821   7.860   3.492
   65DOPC   NC3  763  13.993   5.924   6.096
   65DOPC   PO4  764  13.626   5.843   5.950
   65DOPC   GL1  765  13.610   5.593   5.583
   65DOPC   GL2  766  13.303   5.547   5.622
   65DOPC   C1A  767  13.740   5.630   5.141
   65DOPC   D2A  768  13.737   5.659   4.631
   65DOPC   C3A  769  13.716   5.875   4.200
   65DOPC   C4A  770  13.766   6.028   3.724
   65DOPC   C1B  771  13.216   5.560   5.178
   65DOPC   D2B  772  13.166   5.400   4.700
   65DOPC   C3B  773  13.243   5.592   4.279
   65DOPC   C4B  774  13.291   5.857   3.859
   66DOPC   NC3  775  15.290   2.778   5.852
   66DOPC   PO4  776  15.038   2.489   5.755
   66DOPC   GL1  777  15.174   2.586   5.358
   66DOPC   GL2  778  15.021   2.861   5.450
   66DOPC   C1A  779  15.116   2.518   4.896
   66DOPC   D2A  780  15.092   2.607   4.392
   66DOPC   C3A  781  15.114   2.630   3.913
   66DOPC   C4A  782  14.998   2.731   3.430
   66DOPC   C1B  783  14.746   2.788   5.119
   66DOPC   D2B  784  14.637   2.737   4.634
   66DOPC   C3B  785  14.693   2.816   4.168
   66DOPC   C4B  786  14.712   3.040   3.720
   67DOPC   NC3  787  16.144   9.924   5.970
   67DOPC   PO4  788  16.330   9.756   5.659
   67DOPC   GL1  789  16.251   9.538   5.286
   67DOPC   GL2  790  15.958   9.645   5.299
   67DOPC   C1A  791  16.255   9.615   4.848
   67DOPC   D2A  792  16.138   9.716   4.365
   67DOPC   C3A  793  16.153   9.739   3.886
   67DOPC   C4A  794  16.181   9.606   3.410
   67DOPC   C1B  795  15.773   9.820   4.902
   67DOPC   D2B  796  15.583   9.984   4.457
   67DOPC   C3B  797  15.629   9.829   4.006
   67DOPC   C4B  798  15.692   9.710   3.526
   68DOPC   NC3  799   2.581   9.074   6.022
   68DOPC   PO4  800   2.249   9.031   5.798
   68DOPC   GL1  801   2.465   9.076   5.435
   68DOPC   GL2  802   2.702   9.202   5.567
   68DOPC   C1A  803   2.639   9.045   5.028
   68DOPC   D2A  804   2.752   9.000   4.542
   68DOPC   C3A  805   2.659   8.910   4.094
   68DOPC   C4A  806   2.550   8.790   3.627
   68DOPC   C1B  807   2.959   9.384   5.228
   68DOPC   D2B  808   3.123   9.296   4.752
   68DOPC   C3B  809   3.093   9.260   4.266
   68DOPC   C4B  810   3.037   9.130   3.773
   69DOPC   NC3  811   7.134   1.592   6.000
   69DOPC   PO4  812   6.856   1.564   5.708
   69DOPC   GL1  813   6.860   1.300   5.387
   69DOPC   GL2  814   6.616   1.139   5.485
   69DOPC   C1A  815   6.801   1.411   4.970
   69DOPC   D2A  816   6.823   1.607   4.509
   69DOPC   C3A  817   6.799   1.441   4.064
   69DOPC   C4A  818   6.641   1.130   3.714
   69DOPC   C1B  819   6.471   1.017   5.076
   69DOPC   D2B  820   6.552   1.129   4.583
   69DOPC   C3B  821   6.339   1.217   4.160
   69DOPC   C4B  822   6.153   1.320   3.704
   70DOPC   NC3  823  12.648   8.626   5.586
   70DOPC   PO4  824  13.021   8.613   5.429
   70DOPC   GL1  825  12.929   8.809   5.052
   70DOPC   GL2  826  12.682   8.636   5.101
   70DOPC   C1A  827  12.982   8.731   4.621
   70DOPC   D2A  828  12.812   8.594   4.159
   70DOPC   C3A  829  12.864   8.252   3.839
   70DOPC   C4A  830  13.015   7.782   3.767
   70DOPC   C1B  831  12.672   8.339   4.772
   70DOPC   D2B  832  12.690   8.110   4.321
   70DOPC   C3B  833  12.500   7.915   3.931
   70DOPC   C4B  834  12.405   7.914   3.443
   71DOPC   NC3  835   5.664   3.501   5.930
   71DOPC   PO4  836   5.461   3.826   5.801
   71DOPC   GL1  837   5.646   3.916   5.422
   71DOPC   GL2  838   5.920   3.833   5.564
   71DOPC   C1A  839   5.693   3.720   5.020
   71DOPC   D2A  840   5.821   3.397   4.649
   71DOPC   C3A  841   5.764   3.255   4.200
   71DOPC   C4A  842   5.497   3.374   3.807
   71DOPC   C1B  843   6.134   3.565   5.268
   71DOPC   D2B  844   6.296   3.393   4.822
   71DOPC   C3B  845   6.252   3.411   4.346
   71DOPC   C4B  846   6.136   3.417   3.852
   72DOPC   NC3  847  14.019   6.852   5.704
   72DOPC   PO4  848  14.392   6.972   5.656
   72DOPC   GL1  849  14.265   7.102   5.254
   72DOPC   GL2  850  14.536   7.232   5.270
   72DOPC   C1A  851  14.046   7.164   4.850
   72DOPC   D2A  852  14.023   7.387   4.397
   72DOPC   C3A  853  14.075   7.342   3.928
   72DOPC   C4A  854  14.123   7.279   3.433
   72DOPC   C1B  855  14.480   7.399   4.882
   72DOPC   D2B  856  14.426   7.710   4.502
   72DOPC   C3B  857  14.495   7.525   4.111
   72DOPC   C4B  858  14.559   7.272   3.712
   73DOPC   NC3  859  10.787   2.213   5.813
   73DOPC   PO4  860  11.052   2.512   5.793
   73DOPC   GL1  861  11.060   2.710   5.379
   73DOPC   GL2  862  10.996   2.407   5.319
   73DOPC   C1A  863  10.844   2.877   5.005
   73DOPC   D2A  864  10.595   2.753   4.572
   73DOPC   C3A  865  10.692   2.797   4.105
   73DOPC   C4A  866  10.802   2.880   3.620
   73DOPC   C1B  867  10.770   2.376   4.927
   73DOPC   D2B  868  10.453   2.215   4.557
   73DOPC   C3B  869  10.364   2.392   4.123
   73DOPC   C4B  870  10.332   2.604   3.660
   74DOPC   NC3  871   5.335   8.077   5.722
   74DOPC   PO4  872   5.053   8.361   5.693
   74DOPC   GL1  873   4.981   8.318   5.297
   74DOPC   GL2  874   5.146   8.069   5.249
   74DOPC   C1A  875   5.086   8.497   4.919
   74DOPC   D2A  876   5.069   8.715   4.476
   74DOPC   C3A  877   5.002   8.448   4.081
   74DOPC   C4A  878   4.873   8.333   3.598
   74DOPC   C1B  879   5.063   7.976   4.798
   74DOPC   D2B  880   4.982   7.848   4.306
   74DOPC   C3B  881   5.007   7.910   3.827
   74DOPC   C4B  882   5.281   8.082   3.418
   75DOPC   NC3  883   8.101   0.622   5.997
   75DOPC   PO4  884   7.981   0.889   5.718
   75DOPC   GL1  885   8.023   0.703   5.307
   75DOPC   GL2  886   8.185   0.477   5.430
   75DOPC   C1A  887   7.905   0.577   4.874
   75DOPC   D2A  888   7.825   0.643   4.378
   75DOPC   C3A  889   7.828   0.515   3.919
   75DOPC   C4A  890   7.814   0.488   3.422
   75DOPC   C1B  891   8.306   0.313   5.015
   75DOPC   D2B  892   8.256   0.344   4.502
   75DOPC   C3B  893   8.293   0.269   4.024
   75DOPC   C4B  894   8.269   0.190   3.527
   76DOPC   NC3  895   5.911   0.712   5.785
   76DOPC   PO4  896   6.216   0.548   5.576
   76DOPC   GL1  897   6.114   0.670   5.179
   76DOPC   GL2  898   5.870   0.829   5.321
   76DOPC   C1A  899   6.012   0.905   4.821
   76DOPC   D2A  900   5.720   1.043   4.431
   76DOPC   C3A  901   5.739   1.103   3.961
   76DOPC   C4A  902   5.748   1.066   3.465
   76DOPC   C1B  903   5.573   1.048   5.043
   76DOPC   D2B  904   5.455   1.430   4.727
   76DOPC   C3B  905   5.556   1.548   4.278
   76DOPC   C4B  906   5.708   1.646   3.818
   77DOPC   NC3  907   7.619   6.416   5.766
   77DOPC   PO4  908   7.286   6.576   5.601
   77DOPC   GL1  909   7.095   6.732   5.245
   77DOPC   GL2  910   6.806   6.681   5.279
   77DOPC   C1A  911   7.194   6.635   4.810
   77DOPC   D2A  912   7.287   6.548   4.316
   77DOPC   C3A  913   7.343   6.514   3.837
   77DOPC   C4A  914   7.292   6.409   3.354
   77DOPC   C1B  915   6.697   6.619   4.849
   77DOPC   D2B  916   6.804   6.383   4.440
   77DOPC   C3B  917   6.865   6.465   4.000
   77DOPC   C4B  918   6.941   6.732   3.587
   78DOPC   NC3  919   0.504   3.091   5.670
   78DOPC   PO4  920   0.129   2.986   5.707
   78DOPC   GL1  921   0.260   2.891   5.306
   78DOPC   GL2  922   0.371   2.637   5.453
   78DOPC   C1A  923   0.412   2.939   4.877
   78DOPC   D2A  924   0.594   2.999   4.405
   78DOPC   C3A  925   0.456   3.014   3.950
   78DOPC   C4A  926   0.230   3.054   3.505
   78DOPC   C1B  927   0.604   2.510   5.100
   78DOPC   D2B  928   0.515   2.472   4.626
   78DOPC   C3B  929   0.685   2.447   4.202
   78DOPC   C4B  930   0.489   2.467   3.753
   79DOPC   NC3  931   9.727   0.569   5.846
   79DOPC   PO4  932   9.942   0.807   5.602
   79DOPC   GL1  933   9.760   0.588   5.316
   79DOPC   GL2  934   9.867   0.308   5.336
   79DOPC   C1A  935   9.501   0.582   4.959
   79DOPC   D2A  936   9.637   0.532   4.485
   79DOPC   C3A  937   9.375   0.594   4.103
   79DOPC   C4A  938   9.155   0.439   3.694
   79DOPC   C1B  939   9.747   0.113   4.932
   79DOPC   D2B  940   9.631   0.003   4.443
   79DOPC   C3B  941   9.593   0.141   3.983
   79DOPC   C4B  942   9.619   0.309   3.504
   80DOPC   NC3  943   1.583   7.466   6.198
   80DOPC   PO4  944   1.460   7.407   5.820
   80DOPC   GL1  945   1.620   7.429   5.373
   80DOPC   GL2  946   1.678   7.124   5.433
   80DOPC   C1A  947   1.686   7.473   4.905
   80DOPC   D2A  948   1.830   7.484   4.402
   80DOPC   C3A  949   1.793   7.544   3.916
   80DOPC   C4A  950   1.627   7.631   3.443
   80DOPC   C1B  951   1.874   6.991   5.040
   80DOPC   D2B  952   2.060   7.052   4.574
   80DOPC   C3B  953   2.149   7.156   4.114
   80DOPC   C4B  954   2.360   7.198   3.657
   81DOPC   NC3  955  19.676   9.184   5.822
   81DOPC   PO4  956  19.967   9.082   5.562
   81DOPC   GL1  957  19.756   8.962   5.192
   81DOPC   GL2  958  19.512   9.079   5.365
   81DOPC   C1A  959  19.634   9.007   4.736
   81DOPC   D2A  960  19.445   9.280   4.335
   81DOPC   C3A  961  19.495   9.369   3.867
   81DOPC   C4A  962  19.616   9.200   3.411
   81DOPC   C1B  963  19.291   8.849   5.080
   81DOPC   D2B  964  19.319   8.534   4.689
   81DOPC   C3B  965  19.486   8.727   4.281
   81DOPC   C4B  966  19.650   8.878   3.838
   82DOPC   NC3  967   2.649   7.049   5.810
   82DOPC   PO4  968   2.838   6.712   5.699
   82DOPC   GL1  969   2.789   6.795   5.298
   82DOPC   GL2  970   2.633   7.058   5.346
   82DOPC   C1A  971   2.729   6.807   4.869
   82DOPC   D2A  972   2.561   6.906   4.412
   82DOPC   C3A  973   2.657   6.935   3.959
   82DOPC   C4A  974   2.849   7.059   3.509
   82DOPC   C1B  975   2.437   7.217   4.957
   82DOPC   D2B  976   2.342   7.471   4.527
   82DOPC   C3B  977   2.570   7.458   4.117
   82DOPC   C4B  978   2.860   7.519   3.722
   83DOPC   NC3  979   3.435   6.904   6.166
   83DOPC   PO4  980   3.136   7.058   5.947
   83DOPC   GL1  981   3.059   7.084   5.507
   83DOPC   GL2  982   3.229   6.848   5.453
   83DOPC   C1A  983   2.968   7.215   5.079
   83DOPC   D2A  984   2.825   7.303   4.600
   83DOPC   C3A  985   3.026   7.224   4.176
   83DOPC   C4A  986   3.290   7.224   3.757
   83DOPC   C1B  987   3.389   6.913   5.056
   83DOPC   D2B  988   3.313   7.139   4.616
   83DOPC   C3B  989   3.532   7.304   4.239
   83DOPC   C4B  990   3.809   7.210   3.847
   84DOPC   NC3  991  18.820   8.188   5.845
   84DOPC   PO4  992  19.062   7.872   5.824
   84DOPC   GL1  993  18.915   7.900   5.429
   84DOPC   GL2  994  18.949   8.200   5.390
   84DOPC   C1A  995  18.914   7.754   5.022
   84DOPC   D2A  996  18.958   7.567   4.564
   84DOPC   C3A  997  19.011   7.813   4.174
   84DOPC   C4A  998  19.316   7.916   3.813
   84DOPC   C1B  999  18.917   8.308   4.950
   84DOPC   D2B 1000  18.878   8.435   4.454
   84DOPC   C3B 1001  18.955   8.321   4.001
   84DOPC   C4B 1002  19.027   8.541   3.566
   85DOPC   NC3 1003  14.400   5.714   5.836
   85DOPC   PO4 1004  14.099   5.874   5.620
   85DOPC   GL1 1005  14.286   5.916   5.258
   85DOPC   GL2 1006  14.566   5.822   5.344
   85DOPC   C1A 1007  14.199   5.829   4.834
   85DOPC   D2A 1008  14.200   5.747   4.340
   85DOPC   C3A 1009  14.213   6.060   3.999
   85DOPC   C4A 1010  14.148   6.381   3.629
   85DOPC   C1B 1011  14.731   5.784   4.919
   85DOPC   D2B 1012  14.898   5.764   4.433
   85DOPC   C3B 1013  14.659   5.776   4.023
   85DOPC   C4B 1014  14.289   5.636   3.707
   86DOPC   NC3 1015   5.374   5.053   5.801
   86DOPC   PO4 1016   5.383   5.296   5.480
   86DOPC   GL1 1017   5.071   5.196   5.194
   86DOPC   GL2 1018   5.231   4.936   5.128
   86DOPC   C1A 1019   4.799   5.270   4.840
   86DOPC   D2A 1020   4.629   5.212   4.367
   86DOPC   C3A 1021   4.972   5.105   4.071
   86DOPC   C4A 1022   5.423   5.254   3.926
   86DOPC   C1B 1023   5.069   4.829   4.716
   86DOPC   D2B 1024   4.862   4.646   4.285
   86DOPC   C3B 1025   4.856   4.664   3.806
   86DOPC   C4B 1026   4.929   4.722   3.308
   87DOPC   NC3 1027   3.615   0.669   5.761
   87DOPC   PO4 1028   3.238   0.535   5.754
   87DOPC   GL1 1029   3.017   0.646   5.370
   87DOPC   GL2 1030   3.244   0.875   5.393
   87DOPC   C1A 1031   3.025   0.785   4.951
   87DOPC   D2A 1032   3.156   1.067   4.557
   87DOPC   C3A 1033   3.357   1.033   4.139
   87DOPC   C4A 1034   3.195   0.926   3.690
   87DOPC   C1B 1035   3.398   1.126   5.031
   87DOPC   D2B 1036   3.600   1.370   4.620
   87DOPC   C3B 1037   3.655   1.460   4.151
   87DOPC   C4B 1038   3.536   1.311   3.689
   88DOPC   NC3 1039   9.837   8.978   6.077
   88DOPC   PO4 1040   9.860   8.793   5.725
   88DOPC   GL1 1041  10.035   8.879   5.367
   88DOPC   GL2 1042  10.015   9.173   5.409
   88DOPC   C1A 1043  10.027   8.795   4.934
   88DOPC   D2A 1044  10.100   8.732   4.437
   88DOPC   C3A 1045   9.936   8.593   4.018
   88DOPC   C4A 1046   9.789   8.429   3.570
   88DOPC   C1B 1047   9.853   9.258   5.019
   88DOPC   D2B 1048   9.760   9.084   4.567
   88DOPC   C3B 1049   9.703   9.063   4.090
   88DOPC   C4B 1050   9.612   8.967   3.605
   89DOPC   NC3 1051  11.598   1.197   5.864
   89DOPC   PO4 1052  11.345   0.929   5.713
   89DOPC   GL1 1053  11.093   0.953   5.372
   89DOPC   GL2 1054  11.032   1.243   5.394
   89DOPC   C1A 1055  11.283   0.882   4.982
   89DOPC   D2A 1056  11.512   0.735   4.575
   89DOPC   C3A 1057  11.266   0.841   4.192
   89DOPC   C4A 1058  11.089   0.966   3.743
   89DOPC   C1B 1059  11.359   1.360   5.098
   89DOPC   D2B 1060  11.470   1.249   4.609
   89DOPC   C3B 1061  11.377   1.340   4.153
   89DOPC   C4B 1062  11.193   1.469   3.702
   90DOPC   NC3 1063  10.680   1.212   6.043
   90DOPC   PO4 1064  10.832   0.959   5.775
   90DOPC   GL1 1065  10.654   0.942   5.382
   90DOPC   GL2 1066  10.368   0.986   5.421
   90DOPC   C1A 1067  10.811   1.126   4.993
   90DOPC   D2A 1068  10.962   1.367   4.561
   90DOPC   C3A 1069  10.861   1.345   4.090
   90DOPC   C4A 1070  10.691   1.290   3.620
   90DOPC   C1B 1071  10.276   0.998   4.981
   90DOPC   D2B 1072  10.151   1.207   4.524
   90DOPC   C3B 1073  10.156   1.080   4.061
   90DOPC   C4B 1074  10.361   0.846   3.667
   91DOPC   NC3 1075   2.094   5.151   5.869
   91DOPC   PO4 1076   2.257   4.839   5.675
   91DOPC   GL1 1077   2.255   5.161   5.342
   91DOPC   GL2 1078   1.960   5.129   5.398
   91DOPC   C1A 1079   2.218   5.245   4.905
   91DOPC   D2A 1080   2.112   5.276   4.402
   91DOPC   C3A 1081   2.228   5.025   4.020
   91DOPC   C4A 1082   2.185   4.975   3.535
   91DOPC   C1B 1083   1.852   4.864   5.064
   91DOPC   D2B 1084   1.618   4.680   4.661
   91DOPC   C3B 1085   1.802   4.841   4.263
   91DOPC   C4B 1086   1.751   5.050   3.816
   92DOPC   NC3 1087   8.853   5.152   5.811
   92DOPC   PO4 1088   9.122   4.863   5.741
   92DOPC   GL1 1089   8.932   4.685   5.367
   92DOPC   GL2 1090   8.689   4.857   5.455
   92DOPC   C1A 1091   8.974   4.683   4.897
   92DOPC   D2A 1092   8.983   4.635   4.376
   92DOPC   C3A 1093   8.899   4.589   3.889
   92DOPC   C4A 1094   8.912   4.522   3.382
   92DOPC   C1B 1095   8.549   4.934   5.041
   92DOPC   D2B 1096   8.500   4.927   4.530
   92DOPC   C3B 1097   8.636   4.974   4.072
   92DOPC   C4B 1098   8.749   4.993   3.575
   93DOPC   NC3 1099   2.601   5.050   5.973
   93DOPC   PO4 1100   2.558   5.306   5.669
   93DOPC   GL1 1101   2.639   4.952   5.416
   93DOPC   GL2 1102   2.830   5.117   5.260
   93DOPC   C1A 1103   2.411   4.799   5.059
   93DOPC   D2A 1104   2.335   4.866   4.568
   93DOPC   C3A 1105   2.692   4.998   4.277
   93DOPC   C4A 1106   2.920   5.089   3.835
   93DOPC   C1B 1107   2.731   5.094   4.822
   93DOPC   D2B 1108   2.558   5.469   4.558
   93DOPC   C3B 1109   2.511   5.441   4.108
   93DOPC   C4B 1110   2.507   5.357   3.643
   94DOPC   NC3 1111   7.447   5.933   6.327
   94DOPC   PO4 1112   7.449   5.963   5.927
   94DOPC   GL1 1113   7.115   6.123   5.602
   94DOPC   GL2 1114   7.145   5.806   5.573
   94DOPC   C1A 1115   6.969   6.225   5.178
   94DOPC   D2A 1116   7.118   6.097   4.714
   94DOPC   C3A 1117   7.178   6.056   4.242
   94DOPC   C4A 1118   7.334   5.840   3.829
   94DOPC   C1B 1119   7.094   5.614   5.165
   94DOPC   D2B 1120   7.078   5.530   4.670
   94DOPC   C3B 1121   7.086   5.515   4.198
   94DOPC   C4B 1122   7.006   5.451   3.716
   95DOPC   NC3 1123   3.487   9.175   6.054
   95DOPC   PO4 1124   3.815   9.249   5.840
   95DOPC   GL1 1125   3.662   9.286   5.439
   95DOPC   GL2 1126   3.464   9.060   5.491
   95DOPC   C1A 1127   3.576   9.343   4.997
   95DOPC   D2A 1128   3.586   9.169   4.524
   95DOPC   C3A 1129   3.751   9.258   4.092
   95DOPC   C4A 1130   3.963   9.330   3.651
   95DOPC   C1B 1131   3.287   8.928   5.085
   95DOPC   D2B 1132   3.217   8.803   4.592
   95DOPC   C3B 1133   3.151   8.762   4.114
   95DOPC   C4B 1134   3.067   8.629   3.629
   96DOPC   NC3 1135   5.145   0.354   5.969
   96DOPC   PO4 1136   5.460   0.489   5.769
   96DOPC   GL1 1137   5.292   0.365   5.401
   96DOPC   GL2 1138   5.031   0.256   5.515
   96DOPC   C1A 1139   5.197   0.461   4.975
   96DOPC   D2A 1140   5.275   0.614   4.495
   96DOPC   C3A 1141   5.101   0.451   4.082
   96DOPC   C4A 1142   4.912   0.595   3.649
   96DOPC   C1B 1143   4.739   0.225   5.167
   96DOPC   D2B 1144   4.457   0.259   4.743
   96DOPC   C3B 1145   4.571   0.250   4.281
   96DOPC   C4B 1146   4.634   0.155   3.794
   97DOPC   NC3 1147   6.601   2.089   6.010
   97DOPC   PO4 1148   6.967   2.045   5.851
   97DOPC   GL1 1149   6.969   1.915   5.398
   97DOPC   GL2 1150   6.837   2.188   5.405
   97DOPC   C1A 1151   6.885   1.923   4.956
   97DOPC   D2A 1152   6.718   2.132   4.527
   97DOPC   C3A 1153   6.690   1.941   4.097
   97DOPC   C4A 1154   6.590   1.704   3.673
   97DOPC   C1B 1155   6.476   2.251   5.143
   97DOPC   D2B 1156   6.257   2.310   4.694
   97DOPC   C3B 1157   6.306   2.253   4.239
   97DOPC   C4B 1158   6.370   2.202   3.761
   98DOPC   NC3 1159  11.023   5.918   5.798
   98DOPC   PO4 1160  11.170   6.289   5.840
   98DOPC   GL1 1161  11.542   6.326   5.612
   98DOPC   GL2 1162  11.444   6.039   5.503
   98DOPC   C1A 1163  11.618   6.441   5.191
   98DOPC   D2A 1164  11.611   6.467   4.674
   98DOPC   C3A 1165  11.590   6.382   4.201
   98DOPC   C4A 1166  11.575   6.262   3.717
   98DOPC   C1B 1167  11.505   5.969   5.049
   98DOPC   D2B 1168  11.530   5.986   4.530
   98DOPC   C3B 1169  11.428   5.850   4.077
   98DOPC   C4B 1170  11.290   5.627   3.640
   99DOPC   NC3 1171   3.630   5.906   6.019
   99DOPC   PO4 1172   3.566   6.140   5.704
   99DOPC   GL1 1173   3.750   6.063   5.332
   99DOPC   GL2 1174   3.776   5.776   5.385
   99DOPC   C1A 1175   3.627   5.967   4.917
   99DOPC   D2A 1176   3.619   5.814   4.438
   99DOPC   C3A 1177   3.406   5.832   4.014
   99DOPC   C4A 1178   2.987   6.067   3.858
   99DOPC   C1B 1179   3.616   5.492   5.081
   99DOPC   D2B 1180   3.580   5.256   4.635
   99DOPC   C3B 1181   3.721   5.379   4.204
   99DOPC   C4B 1182   3.838   5.559   3.765
  100DOPC   NC3 1183   5.138   5.435   6.134
  100DOPC   PO4 1184   4.974   5.386   5.777
  100DOPC   GL1 1185   4.931   5.592   5.398
  100DOPC   GL2 1186   4.878   5.852   5.564
  100DOPC   C1A 1187   5.130   5.621   4.977
  100DOPC   D2A 1188   5.198   5.372   4.537
  100DOPC   C3A 1189   5.087   5.595   4.135
  100DOPC   C4A 1190   5.035   5.684   3.660
  100DOPC   C1B 1191   4.954   6.066   5.210
  100DOPC   D2B 1192   5.000   6.085   4.708
  100DOPC   C3B 1193   4.879   6.082   4.238
  100DOPC   C4B 1194   4.695   6.081   3.760
  101DOPC   NC3 1195  15.065   4.064   5.821
  101DOPC   PO4 1196  14.866   3.754   5.660
  101DOPC   GL1 1197  14.926   4.007   5.348
  101DOPC   GL2 1198  15.221   4.057   5.371
  101DOPC   C1A 1199  14.733   4.141   4.976
  101DOPC   D2A 1200  14.521   4.121   4.520
  101DOPC   C3A 1201  14.679   4.283   4.106
  101DOPC   C4A 1202  14.500   4.537   3.714
  101DOPC   C1B 1203  15.319   4.230   4.968
  101DOPC   D2B 1204  15.478   4.223   4.490
  101DOPC   C3B 1205  15.205   4.412   4.154
  101DOPC   C4B 1206  14.993   4.443   3.712
  102DOPC   NC3 1207   5.747   7.355   5.865
  102DOPC   PO4 1208   5.539   7.077   5.670
  102DOPC   GL1 1209   5.813   7.162   5.358
  102DOPC   GL2 1210   5.783   7.470   5.400
  102DOPC   C1A 1211   5.848   7.054   4.932
  102DOPC   D2A 1212   5.975   6.939   4.460
  102DOPC   C3A 1213   5.956   7.121   4.031
  102DOPC   C4A 1214   5.619   7.246   3.698
  102DOPC   C1B 1215   5.641   7.631   5.004
  102DOPC   D2B 1216   5.466   7.736   4.538
  102DOPC   C3B 1217   5.668   7.552   4.146
  102DOPC   C4B 1218   5.949   7.630   3.728
  103DOPC   NC3 1219  13.486   3.233   5.526
  103DOPC   PO4 1220  13.635   3.586   5.636
  103DOPC   GL1 1221  13.843   3.644   5.251
  103DOPC   GL2 1222  13.887   3.345   5.260
  103DOPC   C1A 1223  13.701   3.811   4.858
  103DOPC   D2A 1224  13.532   3.851   4.388
  103DOPC   C3A 1225  13.415   3.739   3.933
  103DOPC   C4A 1226  13.310   3.626   3.457
  103DOPC   C1B 1227  13.572   3.336   4.939
  103DOPC   D2B 1228  13.295   3.360   4.508
  103DOPC   C3B 1229  13.394   3.242   4.045
  103DOPC   C4B 1230  13.294   3.091   3.574
  104DOPC   NC3 1231   3.519   0.156   5.911
  104DOPC   PO4 1232   3.311   0.040   5.585
  104DOPC   GL1 1233   3.589   0.101   5.262
  104DOPC   GL2 1234   3.683   0.319   5.441
  104DOPC   C1A 1235   3.552   0.190   4.819
  104DOPC   D2A 1236   3.479   0.109   4.346
  104DOPC   C3A 1237   3.402   0.142   3.902
  104DOPC   C4A 1238   3.307   9.907   3.493
  104DOPC   C1B 1239   3.557   0.606   5.135
  104DOPC   D2B 1240   3.584   0.807   4.680
  104DOPC   C3B 1241   3.623   0.612   4.263
  104DOPC   C4B 1242   3.612   0.620   3.774
  105DOPC   NC3 1243   6.909   2.859   5.917
  105DOPC   PO4 1244   6.790   2.531   5.722
  105DOPC   GL1 1245   6.729   2.620   5.336
  105DOPC   GL2 1246   6.433   2.683   5.324
  105DOPC   C1A 1247   6.921   2.422   4.994
  105DOPC   D2A 1248   7.200   2.221   4.626
  105DOPC   C3A 1249   7.117   2.216   4.159
  105DOPC   C4A 1250   6.907   2.259   3.703
  105DOPC   C1B 1251   6.533   2.735   4.893
  105DOPC   D2B 1252   6.888   2.649   4.536
  105DOPC   C3B 1253   6.740   2.588   4.098
  105DOPC   C4B 1254   6.527   2.879   3.762
  106DOPC   NC3 1255  16.857   1.033   5.794
  106DOPC   PO4 1256  16.560   1.301   5.770
  106DOPC   GL1 1257  16.433   1.160   5.368
  106DOPC   GL2 1258  16.691   0.990   5.352
  106DOPC   C1A 1259  16.322   1.153   4.939
  106DOPC   D2A 1260  16.297   1.064   4.443
  106DOPC   C3A 1261  16.471   1.296   4.082
  106DOPC   C4A 1262  16.626   1.539   3.697
  106DOPC   C1B 1263  16.700   0.782   4.958
  106DOPC   D2B 1264  16.657   0.622   4.487
  106DOPC   C3B 1265  16.610   0.790   4.052
  106DOPC   C4B 1266  16.542   1.015   3.620
  107DOPC   NC3 1267  15.205   0.426   5.900
  107DOPC   PO4 1268  14.824   0.335   5.788
  107DOPC   GL1 1269  14.704   0.122   5.387
  107DOPC   GL2 1270  15.012   0.126   5.380
  107DOPC   C1A 1271  14.561   0.327   4.994
  107DOPC   D2A 1272  14.569   0.434   4.500
  107DOPC   C3A 1273  14.693   0.221   4.097
  107DOPC   C4A 1274  14.843   9.897   3.741
  107DOPC   C1B 1275  15.071   0.403   5.043
  107DOPC   D2B 1276  15.061   0.648   4.612
  107DOPC   C3B 1277  15.138   0.568   4.157
  107DOPC   C4B 1278  15.292   0.818   3.759
  108DOPC   NC3 1279   2.420   9.946   5.836
  108DOPC   PO4 1280   2.109   9.909   5.594
  108DOPC   GL1 1281   2.310   0.052   5.225
  108DOPC   GL2 1282   2.004   0.039   5.159
  108DOPC   C1A 1283   2.336   9.892   4.811
  108DOPC   D2A 1284   2.122   9.567   4.484
  108DOPC   C3A 1285   2.137   9.543   4.016
  108DOPC   C4A 1286   2.511   9.808   3.866
  108DOPC   C1B 1287   1.932   9.623   5.007
  108DOPC   D2B 1288   1.786   9.244   4.719
  108DOPC   C3B 1289   1.711   9.289   4.250
  108DOPC   C4B 1290   1.720   9.386   3.752
  109DOPC   NC3 1291   0.873   2.559   5.966
  109DOPC   PO4 1292   0.948   2.921   5.798
  109DOPC   GL1 1293   0.779   2.822   5.411
  109DOPC   GL2 1294   0.863   2.536   5.481
  109DOPC   C1A 1295   0.905   2.955   5.010
  109DOPC   D2A 1296   1.041   3.183   4.574
  109DOPC   C3A 1297   1.066   3.019   4.122
  109DOPC   C4A 1298   1.248   2.983   3.657
  109DOPC   C1B 1299   1.119   2.404   5.140
  109DOPC   D2B 1300   1.353   2.262   4.711
  109DOPC   C3B 1301   1.219   2.287   4.243
  109DOPC   C4B 1302   1.031   2.509   3.821
  110DOPC   NC3 1303  14.875   6.002   5.996
  110DOPC   PO4 1304  15.044   6.345   5.892
  110DOPC   GL1 1305  14.924   6.263   5.484
  110DOPC   GL2 1306  14.968   5.977   5.530
  110DOPC   C1A 1307  14.989   6.208   5.061
  110DOPC   D2A 1308  15.088   6.226   4.573
  110DOPC   C3A 1309  15.033   6.190   4.112
  110DOPC   C4A 1310  15.176   5.956   3.705
  110DOPC   C1B 1311  15.169   5.731   5.200
  110DOPC   D2B 1312  15.444   5.613   4.774
  110DOPC   C3B 1313  15.344   5.534   4.307
  110DOPC   C4B 1314  15.077   5.474   3.877
  111DOPC   NC3 1315   8.123   4.309   6.003
  111DOPC   PO4 1316   7.914   4.624   5.879
  111DOPC   GL1 1317   7.794   4.426   5.526
  111DOPC   GL2 1318   8.049   4.249   5.507
  111DOPC   C1A 1319   7.695   4.332   5.104
  111DOPC   D2A 1320   7.725   4.128   4.651
  111DOPC   C3A 1321   7.583   4.159   4.198
  111DOPC   C4A 1322   7.732   4.342   3.745
  111DOPC   C1B 1323   8.171   4.238   5.055
  111DOPC   D2B 1324   8.228   4.149   4.553
  111DOPC   C3B 1325   8.059   4.295   4.129
  111DOPC   C4B 1326   8.196   4.131   3.673
  112DOPC   NC3 1327   5.089   9.546   5.869
  112DOPC   PO4 1328   5.120   9.223   5.632
  112DOPC   GL1 1329   5.367   9.431   5.369
  112DOPC   GL2 1330   5.134   9.639   5.366
  112DOPC   C1A 1331   5.432   9.496   4.952
  112DOPC   D2A 1332   5.524   9.680   4.500
  112DOPC   C3A 1333   5.319   9.533   4.111
  112DOPC   C4A 1334   5.173   9.280   3.725
  112DOPC   C1B 1335   5.127   9.920   5.014
  112DOPC   D2B 1336   5.041   0.158   4.576
  112DOPC   C3B 1337   4.991   9.953   4.158
  112DOPC   C4B 1338   4.886   9.691   3.763
  113DOPC   NC3 1339  11.536   2.391   5.809
  113DOPC   PO4 1340  11.897   2.540   5.702
  113DOPC   GL1 1341  11.741   2.700   5.315
  113DOPC   GL2 1342  11.483   2.526   5.350
  113DOPC   C1A 1343  11.719   2.714   4.872
  113DOPC   D2A 1344  11.595   2.653   4.390
  113DOPC   C3A 1345  11.619   2.841   3.954
  113DOPC   C4A 1346  11.472   2.841   3.487
  113DOPC   C1B 1347  11.251   2.566   4.966
  113DOPC   D2B 1348  11.077   2.632   4.483
  113DOPC   C3B 1349  11.151   2.615   3.998
  113DOPC   C4B 1350  11.137   2.465   3.518
  114DOPC   NC3 1351   0.355   4.777   5.943
  114DOPC   PO4 1352   0.148   4.986   5.681
  114DOPC   GL1 1353   0.351   4.983   5.323
  114DOPC   GL2 1354   0.485   4.711   5.386
  114DOPC   C1A 1355   0.347   4.957   4.880
  114DOPC   D2A 1356   0.364   4.938   4.391
  114DOPC   C3A 1357   0.401   5.147   3.978
  114DOPC   C4A 1358   0.485   5.270   3.514
  114DOPC   C1B 1359   0.707   4.632   5.014
  114DOPC   D2B 1360   0.817   4.694   4.516
  114DOPC   C3B 1361   0.659   4.690   4.064
  114DOPC   C4B 1362   0.372   4.743   3.654
  115DOPC   NC3 1363  17.071   9.593   5.716
  115DOPC   PO4 1364  17.424   9.780   5.759
  115DOPC   GL1 1365  17.509   0.009   5.359
  115DOPC   GL2 1366  17.214   0.033   5.380
  115DOPC   C1A 1367  17.476  10.003   4.908
  115DOPC   D2A 1368  17.398   9.804   4.438
  115DOPC   C3A 1369  17.495   9.612   3.999
  115DOPC   C4A 1370  17.444   9.422   3.540
  115DOPC   C1B 1371  17.126   9.687   5.140
  115DOPC   D2B 1372  17.082   9.426   4.710
  115DOPC   C3B 1373  17.052   9.463   4.237
  115DOPC   C4B 1374  16.973   9.489   3.744
  116DOPC   NC3 1375   4.653   3.412   5.854
  116DOPC   PO4 1376   4.367   3.164   5.728
  116DOPC   GL1 1377   4.150   3.241   5.430
  116DOPC   GL2 1378   3.909   3.043   5.444
  116DOPC   C1A 1379   4.264   3.432   5.047
  116DOPC   D2A 1380   4.274   3.522   4.555
  116DOPC   C3A 1381   4.378   3.571   4.102
  116DOPC   C4A 1382   4.568   3.763   3.693
  116DOPC   C1B 1383   3.787   3.207   5.054
  116DOPC   D2B 1384   3.764   3.525   4.662
  116DOPC   C3B 1385   3.863   3.526   4.202
  116DOPC   C4B 1386   3.985   3.518   3.720
  117DOPC   NC3 1387  18.703   7.496   5.923
  117DOPC   PO4 1388  18.546   7.642   5.587
  117DOPC   GL1 1389  18.723   7.338   5.314
  117DOPC   GL2 1390  18.983   7.378   5.456
  117DOPC   C1A 1391  18.755   7.225   4.878
  117DOPC   D2A 1392  18.751   7.139   4.376
  117DOPC   C3A 1393  18.727   7.370   3.964
  117DOPC   C4A 1394  18.647   7.462   3.473
  117DOPC   C1B 1395  19.237   7.376   5.085
  117DOPC   D2B 1396  19.452   7.452   4.639
  117DOPC   C3B 1397  19.266   7.360   4.196
  117DOPC   C4B 1398  19.171   7.402   3.699
  118DOPC   NC3 1399  15.924   9.131   6.051
  118DOPC   PO4 1400  16.080   9.285   5.704
  118DOPC   GL1 1401  15.942   9.182   5.321
  118DOPC   GL2 1402  15.647   9.163   5.436
  118DOPC   C1A 1403  15.833   9.319   4.917
  118DOPC   D2A 1404  15.674   9.473   4.473
  118DOPC   C3A 1405  15.852   9.361   4.061
  118DOPC   C4A 1406  15.984   9.173   3.633
  118DOPC   C1B 1407  15.395   9.095   5.064
  118DOPC   D2B 1408  15.392   8.997   4.564
  118DOPC   C3B 1409  15.551   8.926   4.122
  118DOPC   C4B 1410  15.571   8.736   3.663
  119DOPC   NC3 1411   4.125   0.114   6.085
  119DOPC   PO4 1412   3.994   0.338   5.788
  119DOPC   GL1 1413   4.122   0.149   5.447
  119DOPC   GL2 1414   4.404   0.279   5.500
  119DOPC   C1A 1415   4.005   0.196   5.030
  119DOPC   D2A 1416   3.984   0.165   4.525
  119DOPC   C3A 1417   3.891   0.233   4.063
  119DOPC   C4A 1418   4.085   0.457   3.677
  119DOPC   C1B 1419   4.340   0.564   5.165
  119DOPC   D2B 1420   4.084   0.671   4.741
  119DOPC   C3B 1421   4.171   0.588   4.290
  119DOPC   C4B 1422   4.485   0.630   3.916
  120DOPC   NC3 1423  14.131   9.951   5.928
  120DOPC   PO4 1424  13.778   0.017   5.747
  120DOPC   GL1 1425  13.863   9.760   5.390
  120DOPC   GL2 1426  14.134   9.890   5.430
  120DOPC   C1A 1427  13.862   9.730   4.947
  120DOPC   D2A 1428  14.135   9.584   4.547
  120DOPC   C3A 1429  13.968   9.636   4.108
  120DOPC   C4A 1430  13.875   9.365   3.718
  120DOPC   C1B 1431  14.346   9.870   5.040
  120DOPC   D2B 1432  14.528   9.919   4.567
  120DOPC   C3B 1433  14.462   9.760   4.125
  120DOPC   C4B 1434  14.261   9.737   3.668
  121DOPC   NC3 1435   6.647   4.341   5.689
  121DOPC   PO4 1436   6.938   4.072   5.636
  121DOPC   GL1 1437   6.871   4.083   5.202
  121DOPC   GL2 1438   6.580   4.220   5.254
  121DOPC   C1A 1439   6.757   4.195   4.795
  121DOPC   D2A 1440   6.382   4.249   4.476
  121DOPC   C3A 1441   6.557   4.220   4.053
  121DOPC   C4A 1442   6.874   4.329   3.701
  121DOPC   C1B 1443   6.327   4.452   4.944
  121DOPC   D2B 1444   6.072   4.716   4.578
  121DOPC   C3B 1445   6.195   4.612   4.126
  121DOPC   C4B 1446   6.411   4.531   3.676
  122DOPC   NC3 1447   6.846   5.945   5.932
  122DOPC   PO4 1448   6.747   5.613   5.747
  122DOPC   GL1 1449   6.752   5.863   5.388
  122DOPC   GL2 1450   6.593   6.079   5.536
  122DOPC   C1A 1451   6.705   5.857   4.931
  122DOPC   D2A 1452   6.761   5.851   4.425
  122DOPC   C3A 1453   6.784   5.879   3.942
  122DOPC   C4A 1454   6.684   5.762   3.455
  122DOPC   C1B 1455   6.291   5.870   5.278
  122DOPC   D2B 1456   6.203   5.690   4.824
  122DOPC   C3B 1457   6.303   5.682   4.358
  122DOPC   C4B 1458   6.365   5.580   3.863
  123DOPC   NC3 1459  14.285   1.752   5.868
  123DOPC   PO4 1460  14.111   2.056   5.672
  123DOPC   GL1 1461  14.447   2.029   5.386
  123DOPC   GL2 1462  14.335   2.295   5.294
  123DOPC   C1A 1463  14.569   1.810   5.029
  123DOPC   D2A 1464  14.424   1.823   4.553
  123DOPC   C3A 1465  14.624   1.735   4.141
  123DOPC   C4A 1466  14.818   1.577   3.710
  123DOPC   C1B 1467  13.986   2.168   5.024
  123DOPC   D2B 1468  13.593   2.083   4.720
  123DOPC   C3B 1469  13.945   2.099   4.413
  123DOPC   C4B 1470  14.286   2.122   4.061
  124DOPC   NC3 1471  14.946   2.052   5.955
  124DOPC   PO4 1472  14.609   2.184   5.790
  124DOPC   GL1 1473  14.776   2.328   5.371
  124DOPC   GL2 1474  14.986   2.114   5.442
  124DOPC   C1A 1475  14.653   2.302   4.921
  124DOPC   D2A 1476  14.657   2.276   4.400
  124DOPC   C3A 1477  14.760   2.255   3.928
  124DOPC   C4A 1478  14.852   2.236   3.433
  124DOPC   C1B 1479  15.055   1.990   5.013
  124DOPC   D2B 1480  14.969   1.878   4.520
  124DOPC   C3B 1481  15.116   1.884   4.060
  124DOPC   C4B 1482  15.233   1.878   3.575
  125DOPC   NC3 1483  11.418   6.732   5.885
  125DOPC   PO4 1484  11.142   6.911   5.658
  125DOPC   GL1 1485  11.296   6.735   5.334
  125DOPC   GL2 1486  11.178   6.449   5.383
  125DOPC   C1A 1487  11.303   6.806   4.896
  125DOPC   D2A 1488  11.353   6.834   4.391
  125DOPC   C3A 1489  11.252   6.734   3.931
  125DOPC   C4A 1490  11.216   6.587   3.448
  125DOPC   C1B 1491  11.157   6.337   4.950
  125DOPC   D2B 1492  11.143   6.352   4.441
  125DOPC   C3B 1493  11.135   6.243   3.975
  125DOPC   C4B 1494  11.122   6.088   3.490
  126DOPC   NC3 1495  11.316   7.576   5.844
  126DOPC   PO4 1496  11.514   7.229   5.830
  126DOPC   GL1 1497  11.457   7.217   5.405
  126DOPC   GL2 1498  11.377   7.521   5.383
  126DOPC   C1A 1499  11.524   7.246   4.970
  126DOPC   D2A 1500  11.467   7.339   4.467
  126DOPC   C3A 1501  11.412   7.234   4.000
  126DOPC   C4A 1502  11.285   7.082   3.532
  126DOPC   C1B 1503  11.277   7.666   4.951
  126DOPC   D2B 1504  11.038   7.691   4.512
  126DOPC   C3B 1505  11.058   7.635   4.043
  126DOPC   C4B 1506  11.159   7.567   3.567
  127DOPC   NC3 1507  17.123   8.181   5.729
  127DOPC   PO4 1508  17.506   8.104   5.634
  127DOPC   GL1 1509  17.477   7.757   5.374
  127DOPC   GL2 1510  17.175   7.816   5.430
  127DOPC   C1A 1511  17.540   7.819   4.930
  127DOPC   D2A 1512  17.528   7.859   4.420
  127DOPC   C3A 1513  17.488   8.096   4.010
  127DOPC   C4A 1514  17.624   8.457   3.705
  127DOPC   C1B 1515  17.050   8.008   5.056
  127DOPC   D2B 1516  16.871   8.180   4.608
  127DOPC   C3B 1517  16.986   8.161   4.148
  127DOPC   C4B 1518  17.071   8.026   3.673
  128DOPC   NC3 1519  12.737   3.008   5.942
  128DOPC   PO4 1520  13.094   3.186   5.881
  128DOPC   GL1 1521  13.015   3.343   5.518
  128DOPC   GL2 1522  12.714   3.291   5.525
  128DOPC   C1A 1523  13.103   3.152   5.135
  128DOPC   D2A 1524  12.946   2.970   4.678
  128DOPC   C3A 1525  12.921   3.150   4.230
  128DOPC   C4A 1526  12.950   3.430   3.813
  128DOPC   C1B 1527  12.661   3.356   5.091
  128DOPC   D2B 1528  12.750   3.519   4.624
  128DOPC   C3B 1529  12.601   3.584   4.184
  128DOPC   C4B 1530  12.495   3.701   3.715
  129DOPC   NC3 1531  16.694   9.869   5.977
  129DOPC   PO4 1532  16.961   0.080   5.757
  129DOPC   GL1 1533  16.741   0.019   5.373
  129DOPC   GL2 1534  16.731   9.713   5.419
  129DOPC   C1A 1535  16.703   9.876   4.952
  129DOPC   D2A 1536  16.636   9.624   4.524
  129DOPC   C3A 1537  16.639   9.743   4.073
  129DOPC   C4A 1538  16.850   0.018   3.730
  129DOPC   C1B 1539  16.703   9.391   5.070
  129DOPC   D2B 1540  16.670   9.109   4.643
  129DOPC   C3B 1541  16.601   9.230   4.191
  129DOPC   C4B 1542  16.479   9.333   3.725
  130DOPC   NC3 1543   7.801   3.123   5.610
  130DOPC   PO4 1544   7.424   3.252   5.622
  130DOPC   GL1 1545   7.588   3.513   5.344
  130DOPC   GL2 1546   7.768   3.652   5.547
  130DOPC   C1A 1547   7.893   3.329   5.066
  130DOPC   D2A 1548   8.155   3.062   4.730
  130DOPC   C3A 1549   8.123   3.304   4.329
  130DOPC   C4A 1550   8.022   3.261   3.846
  130DOPC   C1B 1551   7.923   3.827   5.179
  130DOPC   D2B 1552   8.048   3.688   4.712
  130DOPC   C3B 1553   8.001   3.799   4.257
  130DOPC   C4B 1554   7.807   3.833   3.811
  131DOPC   NC3 1555  16.673   8.035   5.914
  131DOPC   PO4 1556  16.835   7.707   5.743
  131DOPC   GL1 1557  16.744   7.832   5.351
  131DOPC   GL2 1558  16.747   8.124   5.439
  131DOPC   C1A 1559  16.662   7.715   4.916
  131DOPC   D2A 1560  16.605   7.632   4.421
  131DOPC   C3A 1561  16.646   7.791   3.973
  131DOPC   C4A 1562  16.611   7.831   3.474
  131DOPC   C1B 1563  16.559   8.200   5.051
  131DOPC   D2B 1564  16.357   8.080   4.611
  131DOPC   C3B 1565  16.476   8.239   4.183
  131DOPC   C4B 1566  16.680   8.357   3.742
  132DOPC   NC3 1567  18.245   1.016   6.087
  132DOPC   PO4 1568  18.098   0.842   5.753
  132DOPC   GL1 1569  18.214   1.083   5.416
  132DOPC   GL2 1570  18.126   1.318   5.580
  132DOPC   C1A 1571  18.204   1.092   4.969
  132DOPC   D2A 1572  18.219   0.912   4.499
  132DOPC   C3A 1573  18.300   1.062   4.049
  132DOPC   C4A 1574  18.190   1.368   3.654
  132DOPC   C1B 1575  17.896   1.418   5.227
  132DOPC   D2B 1576  17.848   1.391   4.719
  132DOPC   C3B 1577  17.897   1.263   4.261
  132DOPC   C4B 1578  17.867   1.010   3.804
  133DOPC   NC3 1579  17.390   2.631   5.831
  133DOPC   PO4 1580  17.229   2.890   5.585
  133DOPC   GL1 1581  17.210   2.531   5.363
  133DOPC   GL2 1582  17.462   2.379   5.454
  133DOPC   C1A 1583  17.291   2.605   4.939
  133DOPC   D2A 1584  17.493   2.690   4.495
  133DOPC   C3A 1585  17.330   2.766   4.072
  133DOPC   C4A 1586  17.393   3.112   3.739
  133DOPC   C1B 1587  17.721   2.350   5.080
  133DOPC   D2B 1588  17.892   2.366   4.597
  133DOPC   C3B 1589  17.802   2.491   4.144
  133DOPC   C4B 1590  17.665   2.634   3.689
  134DOPC   NC3 1591  16.676   4.218   5.788
  134DOPC   PO4 1592  16.712   3.823   5.737
  134DOPC   GL1 1593  16.856   3.864   5.358
  134DOPC   GL2 1594  16.844   4.168   5.337
  134DOPC   C1A 1595  16.597   3.790   5.003
  134DOPC   D2A 1596  16.258   3.806   4.630
  134DOPC   C3A 1597  16.428   3.809   4.177
  134DOPC   C4A 1598  16.709   3.742   3.770
  134DOPC   C1B 1599  16.694   4.277   4.920
  134DOPC   D2B 1600  16.479   4.250   4.459
  134DOPC   C3B 1601  16.189   4.497   4.172
  134DOPC   C4B 1602  15.971   4.621   3.745
  135DOPC   NC3 1603   2.665   1.370   6.171
  135DOPC   PO4 1604   2.518   1.231   5.824
  135DOPC   GL1 1605   2.688   1.016   5.475
  135DOPC   GL2 1606   2.470   0.807   5.439
  135DOPC   C1A 1607   2.729   1.203   5.059
  135DOPC   D2A 1608   2.658   1.262   4.557
  135DOPC   C3A 1609   2.624   1.488   4.137
  135DOPC   C4A 1610   2.684   1.795   3.748
  135DOPC   C1B 1611   2.507   0.755   4.990
  135DOPC   D2B 1612   2.739   0.753   4.523
  135DOPC   C3B 1613   2.837   1.006   4.124
  135DOPC   C4B 1614   2.829   1.274   3.696
  136DOPC   NC3 1615  14.368   9.349   5.912
  136DOPC   PO4 1616  14.039   9.501   5.739
  136DOPC   GL1 1617  14.239   9.469   5.394
  136DOPC   GL2 1618  14.439   9.246   5.449
  136DOPC   C1A 1619  14.137   9.316   5.019
  136DOPC   D2A 1620  14.173   9.004   4.650
  136DOPC   C3A 1621  14.086   9.147   4.233
  136DOPC   C4A 1622  14.361   9.286   3.873
  136DOPC   C1B 1623  14.565   9.014   5.064
  136DOPC   D2B 1624  14.637   8.774   4.614
  136DOPC   C3B 1625  14.441   8.796   4.176
  136DOPC   C4B 1626  14.109   8.842   3.791
  137DOPC   NC3 1627  15.028   7.788   6.019
  137DOPC   PO4 1628  14.926   7.408   5.949
  137DOPC   GL1 1629  14.927   7.571   5.559
  137DOPC   GL2 1630  15.067   7.816   5.561
  137DOPC   C1A 1631  14.883   7.548   5.129
  137DOPC   D2A 1632  14.883   7.548   4.617
  137DOPC   C3A 1633  14.889   7.820   4.218
  137DOPC   C4A 1634  14.856   8.044   3.764
  137DOPC   C1B 1635  15.182   7.947   5.143
  137DOPC   D2B 1636  15.147   7.993   4.639
  137DOPC   C3B 1637  15.298   8.135   4.211
  137DOPC   C4B 1638  15.349   8.247   3.725
  138DOPC   NC3 1639  17.683   5.757   5.729
  138DOPC   PO4 1640  17.592   5.368   5.740
  138DOPC   GL1 1641  17.806   5.463   5.346
  138DOPC   GL2 1642  17.517   5.567   5.281
  138DOPC   C1A 1643  17.949   5.759   5.040
  138DOPC   D2A 1644  18.052   5.972   4.594
  138DOPC   C3A 1645  17.830   5.798   4.208
  138DOPC   C4A 1646  17.491   5.846   3.854
  138DOPC   C1B 1647  17.402   5.698   4.853
  138DOPC   D2B 1648  17.266   5.786   4.365
  138DOPC   C3B 1649  17.013   5.791   3.954
  138DOPC   C4B 1650  17.110   5.978   3.499
  139DOPC   NC3 1651  19.861   4.656   5.950
  139DOPC   PO4 1652  19.696   4.751   5.600
  139DOPC   GL1 1653  19.560   5.154   5.486
  139DOPC   GL2 1654  19.846   5.185   5.368
  139DOPC   C1A 1655  19.352   5.053   5.117
  139DOPC   D2A 1656  19.429   4.792   4.695
  139DOPC   C3A 1657  19.487   4.864   4.244
  139DOPC   C4A 1658  19.557   5.102   3.825
  139DOPC   C1B 1659  19.854   4.941   4.982
  139DOPC   D2B 1660  19.923   4.723   4.522
  139DOPC   C3B 1661  19.974   4.845   4.048
  139DOPC   C4B 1662   0.015   5.146   3.634
  140DOPC   NC3 1663  12.650   1.049   5.875
  140DOPC   PO4 1664  12.323   0.909   5.680
  140DOPC   GL1 1665  12.403   0.948   5.261
  140DOPC   GL2 1666  12.602   1.171   5.339
  140DOPC   C1A 1667  12.390   0.919   4.804
  140DOPC   D2A 1668  12.331   0.915   4.294
  140DOPC   C3A 1669  12.464   0.950   3.830
  140DOPC   C4A 1670  12.486   1.062   3.334
  140DOPC   C1B 1671  12.741   1.317   4.927
  140DOPC   D2B 1672  12.743   1.605   4.510
  140DOPC   C3B 1673  12.757   1.421   4.076
  140DOPC   C4B 1674  12.869   1.232   3.637
  141DOPC   NC3 1675   5.024   6.955   5.768
  141DOPC   PO4 1676   5.301   6.713   5.937
  141DOPC   GL1 1677   5.378   6.666   5.502
  141DOPC   GL2 1678   5.085   6.576   5.481
  141DOPC   C1A 1679   5.369   6.814   5.084
  141DOPC   D2A 1680   5.220   6.786   4.593
  141DOPC   C3A 1681   5.224   6.924   4.136
  141DOPC   C4A 1682   5.186   6.985   3.646
  141DOPC   C1B 1683   4.932   6.542   5.060
  141DOPC   D2B 1684   4.731   6.501   4.599
  141DOPC   C3B 1685   4.839   6.577   4.149
  141DOPC   C4B 1686   5.009   6.499   3.693
  142DOPC   NC3 1687  10.610   7.875   6.238
  142DOPC   PO4 1688  10.699   7.652   5.911
  142DOPC   GL1 1689  10.751   7.949   5.548
  142DOPC   GL2 1690  11.027   7.797   5.527
  142DOPC   C1A 1691  10.598   7.971   5.115
  142DOPC   D2A 1692  10.629   8.014   4.605
  142DOPC   C3A 1693  10.416   7.893   4.187
  142DOPC   C4A 1694  10.286   7.782   3.719
  142DOPC   C1B 1695  10.938   7.461   5.250
  142DOPC   D2B 1696  11.032   7.228   4.805
  142DOPC   C3B 1697  10.989   7.198   4.335
  142DOPC   C4B 1698  10.912   7.162   3.849
  143DOPC   NC3 1699   8.672   8.827   5.832
  143DOPC   PO4 1700   8.862   9.183   5.861
  143DOPC   GL1 1701   8.652   9.139   5.478
  143DOPC   GL2 1702   8.912   8.960   5.415
  143DOPC   C1A 1703   8.593   8.990   5.072
  143DOPC   D2A 1704   8.582   8.758   4.642
  143DOPC   C3A 1705   8.608   9.015   4.262
  143DOPC   C4A 1706   8.749   9.157   3.824
  143DOPC   C1B 1707   9.131   9.085   5.025
  143DOPC   D2B 1708   9.287   9.252   4.564
  143DOPC   C3B 1709   9.192   9.065   4.141
  143DOPC   C4B 1710   9.122   8.839   3.691
  144DOPC   NC3 1711  19.837   9.590   6.139
  144DOPC   PO4 1712  19.627   9.680   5.810
  144DOPC   GL1 1713  19.690   9.494   5.437
  144DOPC   GL2 1714  19.650   9.813   5.346
  144DOPC   C1A 1715  19.788   9.408   5.015
  144DOPC   D2A 1716  19.914   9.427   4.532
  144DOPC   C3A 1717  19.906   9.587   4.088
  144DOPC   C4A 1718  19.806   9.722   3.620
  144DOPC   C1B 1719  19.609   9.872   4.894
  144DOPC   D2B 1720  19.595   9.875   4.373
  144DOPC   C3B 1721  19.426   9.911   3.911
  144DOPC   C4B 1722  19.276  -0.001   3.436
  145DOPC   NC3 1723  16.360   7.276   5.811
  145DOPC   PO4 1724  16.744   7.160   5.797
  145DOPC   GL1 1725  16.824   7.359   5.417
  145DOPC   GL2 1726  16.542   7.468   5.443
  145DOPC   C1A 1727  16.762   7.229   5.002
  145DOPC   D2A 1728  16.667   7.105   4.524
  145DOPC   C3A 1729  16.679   7.227   4.067
  145DOPC   C4A 1730  16.596   7.163   3.591
  145DOPC   C1B 1731  16.289   7.241   5.177
  145DOPC   D2B 1732  16.172   7.106   4.710
  145DOPC   C3B 1733  16.210   7.280   4.266
  145DOPC   C4B 1734  16.244   7.509   3.819
  146DOPC   NC3 1735   2.471   2.210   5.684
  146DOPC   PO4 1736   2.873   2.281   5.681
  146DOPC   GL1 1737   3.050   2.095   5.324
  146DOPC   GL2 1738   2.732   2.032   5.308
  146DOPC   C1A 1739   3.129   1.917   4.912
  146DOPC   D2A 1740   3.126   1.586   4.514
  146DOPC   C3A 1741   3.143   1.506   4.043
  146DOPC   C4A 1742   3.165   1.662   3.569
  146DOPC   C1B 1743   2.711   2.258   4.946
  146DOPC   D2B 1744   2.852   2.516   4.545
  146DOPC   C3B 1745   2.693   2.439   4.107
  146DOPC   C4B 1746   2.500   2.341   3.661
  147DOPC   NC3 1747  19.049   4.297   6.046
  147DOPC   PO4 1748  19.403   4.457   5.949
  147DOPC   GL1 1749  19.296   4.536   5.520
  147DOPC   GL2 1750  19.123   4.287   5.544
  147DOPC   C1A 1751  19.307   4.493   5.082
  147DOPC   D2A 1752  19.069   4.428   4.628
  147DOPC   C3A 1753  19.153   4.342   4.173
  147DOPC   C4A 1754  19.107   4.207   3.701
  147DOPC   C1B 1755  18.913   4.177   5.140
  147DOPC   D2B 1756  18.630   4.166   4.713
  147DOPC   C3B 1757  18.645   4.110   4.233
  147DOPC   C4B 1758  18.635   3.916   3.767
  148DOPC   NC3 1759  17.836   1.698   5.672
  148DOPC   PO4 1760  18.057   2.027   5.727
  148DOPC   GL1 1761  18.334   2.017   5.403
  148DOPC   GL2 1762  18.253   1.709   5.392
  148DOPC   C1A 1763  18.219   2.100   4.982
  148DOPC   D2A 1764  18.196   1.919   4.515
  148DOPC   C3A 1765  18.166   2.141   4.119
  148DOPC   C4A 1766  18.125   2.407   3.709
  148DOPC   C1B 1767  18.256   1.606   4.955
  148DOPC   D2B 1768  18.339   1.415   4.503
  148DOPC   C3B 1769  18.256   1.620   4.093
  148DOPC   C4B 1770  18.191   1.883   3.682
  149DOPC   NC3 1771  19.894   7.395   5.854
  149DOPC   PO4 1772  19.827   6.994   5.863
  149DOPC   GL1 1773  19.854   7.031   5.411
  149DOPC   GL2 1774  19.650   7.272   5.439
  149DOPC   C1A 1775  -0.007   7.252   5.040
  149DOPC   D2A 1776   0.010   7.560   4.646
  149DOPC   C3A 1777   0.020   7.405   4.206
  149DOPC   C4A 1778   0.033   7.168   3.764
  149DOPC   C1B 1779  19.669   7.628   5.126
  149DOPC   D2B 1780  19.664   7.927   4.710
  149DOPC   C3B 1781  19.595   7.752   4.265
  149DOPC   C4B 1782  19.657   7.500   3.841
  150DOPC   NC3 1783  13.072   1.991   5.752
  150DOPC   PO4 1784  12.685   2.120   5.796
  150DOPC   GL1 1785  12.705   2.411   5.445
  150DOPC   GL2 1786  12.986   2.311   5.429
  150DOPC   C1A 1787  12.635   2.318   5.028
  150DOPC   D2A 1788  12.629   2.126   4.570
  150DOPC   C3A 1789  12.426   2.232   4.168
  150DOPC   C4A 1790  12.271   2.240   3.701
  150DOPC   C1B 1791  13.111   2.118   5.042
  150DOPC   D2B 1792  13.115   1.972   4.553
  150DOPC   C3B 1793  12.868   1.938   4.139
  150DOPC   C4B 1794  12.677   1.906   3.683
  151DOPC   NC3 1795  14.433   3.982   5.839
  151DOPC   PO4 1796  14.633   4.256   5.621
  151DOPC   GL1 1797  14.310   4.079   5.375
  151DOPC   GL2 1798  14.192   4.362   5.410
  151DOPC   C1A 1799  14.216   3.976   4.951
  151DOPC   D2A 1800  14.076   3.861   4.471
  151DOPC   C3A 1801  14.323   3.913   4.067
  151DOPC   C4A 1802  14.655   3.971   3.683
  151DOPC   C1B 1803  14.237   4.547   5.016
  151DOPC   D2B 1804  14.227   4.598   4.519
  151DOPC   C3B 1805  14.176   4.400   4.100
  151DOPC   C4B 1806  14.157   4.166   3.656
  152DOPC   NC3 1807   2.513   4.306   5.860
  152DOPC   PO4 1808   2.741   4.615   5.740
  152DOPC   GL1 1809   2.616   4.496   5.347
  152DOPC   GL2 1810   2.344   4.442   5.439
  152DOPC   C1A 1811   2.576   4.328   4.926
  152DOPC   D2A 1812   2.671   4.511   4.471
  152DOPC   C3A 1813   2.725   4.292   4.066
  152DOPC   C4A 1814   2.774   4.090   3.624
  152DOPC   C1B 1815   2.089   4.407   5.086
  152DOPC   D2B 1816   2.051   4.443   4.584
  152DOPC   C3B 1817   2.244   4.513   4.156
  152DOPC   C4B 1818   2.447   4.542   3.696
  153DOPC   NC3 1819  14.502   7.449   5.688
  153DOPC   PO4 1820  14.522   7.847   5.660
  153DOPC   GL1 1821  14.177   7.865   5.349
  153DOPC   GL2 1822  14.351   7.639   5.251
  153DOPC   C1A 1823  14.143   8.174   4.999
  153DOPC   D2A 1824  14.197   8.492   4.595
  153DOPC   C3A 1825  14.068   8.406   4.147
  153DOPC   C4A 1826  13.829   8.199   3.764
  153DOPC   C1B 1827  14.571   7.901   4.944
  153DOPC   D2B 1828  14.639   8.189   4.529
  153DOPC   C3B 1829  14.452   8.057   4.111
  153DOPC   C4B 1830  14.352   7.794   3.691
  154DOPC   NC3 1831   6.583   7.274   5.797
  154DOPC   PO4 1832   6.565   7.657   5.666
  154DOPC   GL1 1833   6.511   7.443   5.317
  154DOPC   GL2 1834   6.245   7.305   5.444
  154DOPC   C1A 1835   6.585   7.491   4.864
  154DOPC   D2A 1836   6.649   7.433   4.369
  154DOPC   C3A 1837   6.488   7.176   4.006
  154DOPC   C4A 1838   6.538   7.047   3.535
  154DOPC   C1B 1839   6.114   7.460   5.051
  154DOPC   D2B 1840   6.123   7.441   4.542
  154DOPC   C3B 1841   6.250   7.611   4.116
  154DOPC   C4B 1842   6.467   7.569   3.658
  155DOPC   NC3 1843   6.038   0.230   5.924
  155DOPC   PO4 1844   5.907   9.983   5.634
  155DOPC   GL1 1845   5.979   0.211   5.289
  155DOPC   GL2 1846   5.773   0.406   5.419
  155DOPC   C1A 1847   6.126   0.309   4.870
  155DOPC   D2A 1848   6.308   0.644   4.526
  155DOPC   C3A 1849   6.128   0.731   4.107
  155DOPC   C4A 1850   5.918   0.633   3.675
  155DOPC   C1B 1851   5.691   0.536   5.013
  155DOPC   D2B 1852   5.791   0.529   4.520
  155DOPC   C3B 1853   5.610   0.603   4.091
  155DOPC   C4B 1854   5.418   0.465   3.649
  156DOPC   NC3 1855  16.904   3.312   5.914
  156DOPC   PO4 1856  16.793   3.179   5.553
  156DOPC   GL1 1857  16.812   3.443   5.228
  156DOPC   GL2 1858  16.500   3.503   5.349
  156DOPC   C1A 1859  16.851   3.395   4.763
  156DOPC   D2A 1860  16.901   3.433   4.235
  156DOPC   C3A 1861  16.897   3.257   3.777
  156DOPC   C4A 1862  16.925   3.206   3.279
  156DOPC   C1B 1863  16.368   3.335   4.953
  156DOPC   D2B 1864  16.439   3.376   4.449
  156DOPC   C3B 1865  16.431   3.327   3.977
  156DOPC   C4B 1866  16.225   3.636   3.637
  157DOPC   NC3 1867  12.148   3.890   6.024
  157DOPC   PO4 1868  12.459   4.058   5.838
  157DOPC   GL1 1869  12.544   3.846   5.439
  157DOPC   GL2 1870  12.224   3.839   5.437
  157DOPC   C1A 1871  12.550   3.846   4.994
  157DOPC   D2A 1872  12.341   3.861   4.538
  157DOPC   C3A 1873  12.378   4.041   4.099
  157DOPC   C4A 1874  12.479   4.217   3.644
  157DOPC   C1B 1875  12.035   3.924   5.028
  157DOPC   D2B 1876  11.849   4.056   4.570
  157DOPC   C3B 1877  11.836   4.122   4.094
  157DOPC   C4B 1878  11.673   4.247   3.631
  158DOPC   NC3 1879  10.279   9.060   5.802
  158DOPC   PO4 1880  10.422   8.753   5.603
  158DOPC   GL1 1881  10.438   9.042   5.321
  158DOPC   GL2 1882  10.637   9.200   5.482
  158DOPC   C1A 1883  10.524   8.863   4.925
  158DOPC   D2A 1884  10.622   8.840   4.436
  158DOPC   C3A 1885  10.415   8.816   4.011
  158DOPC   C4A 1886  10.101   8.893   3.635
  158DOPC   C1B 1887  10.842   9.226   5.099
  158DOPC   D2B 1888  10.777   9.325   4.593
  158DOPC   C3B 1889  10.644   9.263   4.130
  158DOPC   C4B 1890  10.555   9.140   3.638
  159DOPC   NC3 1891  16.189   5.442   5.624
  159DOPC   PO4 1892  16.046   5.082   5.743
  159DOPC   GL1 1893  16.057   4.872   5.343
  159DOPC   GL2 1894  16.310   5.065   5.325
  159DOPC   C1A 1895  16.049   4.898   4.897
  159DOPC   D2A 1896  16.226   5.035   4.440
  159DOPC   C3A 1897  16.243   5.015   3.963
  159DOPC   C4A 1898  16.169   5.002   3.467
  159DOPC   C1B 1899  16.491   5.175   4.917
  159DOPC   D2B 1900  16.690   5.311   4.467
  159DOPC   C3B 1901  16.698   5.325   3.993
  159DOPC   C4B 1902  16.658   5.086   3.563
  160DOPC   NC3 1903   1.934   6.245   5.766
  160DOPC   PO4 1904   2.050   6.594   5.931
  160DOPC   GL1 1905   2.376   6.680   5.632
  160DOPC   GL2 1906   2.291   6.412   5.518
  160DOPC   C1A 1907   2.324   6.771   5.200
  160DOPC   D2A 1908   2.252   6.613   4.735
  160DOPC   C3A 1909   2.147   6.660   4.269
  160DOPC   C4A 1910   2.094   6.749   3.785
  160DOPC   C1B 1911   1.925   6.478   5.247
  160DOPC   D2B 1912   1.726   6.513   4.772
  160DOPC   C3B 1913   1.644   6.565   4.298
  160DOPC   C4B 1914   1.575   6.702   3.819
  161DOPC   NC3 1915  11.511   8.091   6.047
  161DOPC   PO4 1916  11.491   8.019   5.655
  161DOPC   GL1 1917  11.334   8.379   5.424
  161DOPC   GL2 1918  11.067   8.286   5.519
  161DOPC   C1A 1919  11.319   8.508   4.988
  161DOPC   D2A 1920  11.398   8.612   4.489
  161DOPC   C3A 1921  11.196   8.521   4.071
  161DOPC   C4A 1922  10.823   8.470   3.747
  161DOPC   C1B 1923  11.089   8.073   5.149
  161DOPC   D2B 1924  11.284   8.111   4.690
  161DOPC   C3B 1925  11.345   8.016   4.249
  161DOPC   C4B 1926  11.270   8.046   3.764
  162DOPC   NC3 1927  12.159   1.858   5.764
  162DOPC   PO4 1928  11.838   1.612   5.721
  162DOPC   GL1 1929  11.773   1.544   5.265
  162DOPC   GL2 1930  11.698   1.859   5.304
  162DOPC   C1A 1931  11.871   1.579   4.810
  162DOPC   D2A 1932  12.191   1.857   4.503
  162DOPC   C3A 1933  12.349   1.733   4.072
  162DOPC   C4A 1934  12.408   1.475   3.649
  162DOPC   C1B 1935  11.725   2.063   4.906
  162DOPC   D2B 1936  11.696   1.905   4.428
  162DOPC   C3B 1937  11.892   2.005   4.011
  162DOPC   C4B 1938  11.861   1.971   3.506
  163DOPC   NC3 1939  12.819   4.256   6.100
  163DOPC   PO4 1940  12.852   4.553   5.834
  163DOPC   GL1 1941  12.758   4.271   5.523
  163DOPC   GL2 1942  12.903   4.031   5.650
  163DOPC   C1A 1943  12.831   4.259   5.081
  163DOPC   D2A 1944  12.785   4.133   4.591
  163DOPC   C3A 1945  12.819   4.327   4.151
  163DOPC   C4A 1946  12.903   4.510   3.687
  163DOPC   C1B 1947  13.001   3.790   5.266
  163DOPC   D2B 1948  13.156   3.790   4.768
  163DOPC   C3B 1949  13.041   3.818   4.290
  163DOPC   C4B 1950  12.936   3.951   3.812
  164DOPC   NC3 1951   3.327   6.565   5.791
  164DOPC   PO4 1952   3.722   6.650   5.831
  164DOPC   GL1 1953   3.862   6.666   5.410
  164DOPC   GL2 1954   3.594   6.502   5.353
  164DOPC   C1A 1955   3.911   6.825   4.986
  164DOPC   D2A 1956   3.702   6.778   4.523
  164DOPC   C3A 1957   3.518   6.820   4.086
  164DOPC   C4A 1958   3.418   6.757   3.597
  164DOPC   C1B 1959   3.563   6.456   4.898
  164DOPC   D2B 1960   3.461   6.320   4.411
  164DOPC   C3B 1961   3.424   6.345   3.932
  164DOPC   C4B 1962   3.270   6.263   3.460
  165DOPC   NC3 1963  12.567   9.739   6.029
  165DOPC   PO4 1964  12.593   9.419   5.796
  165DOPC   GL1 1965  12.646   9.619   5.466
  165DOPC   GL2 1966  12.845   9.824   5.498
  165DOPC   C1A 1967  12.582   9.494   5.056
  165DOPC   D2A 1968  12.644   9.527   4.563
  165DOPC   C3A 1969  12.601   9.457   4.098
  165DOPC   C4A 1970  12.574   9.416   3.606
  165DOPC   C1B 1971  12.969   9.846   5.057
  165DOPC   D2B 1972  13.044   9.866   4.549
  165DOPC   C3B 1973  12.979   9.817   4.079
  165DOPC   C4B 1974  13.047   9.783   3.575
  166DOPC   NC3 1975  19.250   0.581   5.931
  166DOPC   PO4 1976  19.215   0.181   5.876
  166DOPC   GL1 1977  19.362   0.163   5.460
  166DOPC   GL2 1978  19.123   9.976   5.389
  166DOPC   C1A 1979  19.315   0.475   5.122
  166DOPC   D2A 1980  19.190   0.711   4.677
  166DOPC   C3A 1981  19.041   0.697   4.221
  166DOPC   C4A 1982  18.823   0.670   3.772
  166DOPC   C1B 1983  19.101   0.038   4.946
  166DOPC   D2B 1984  19.008   0.241   4.497
  166DOPC   C3B 1985  18.834   0.216   4.062
  166DOPC   C4B 1986  18.602   0.216   3.622
  167DOPC   NC3 1987   9.826   1.074   6.038
  167DOPC   PO4 1988  10.203   1.131   5.897
  167DOPC   GL1 1989  10.071   1.316   5.503
  167DOPC   GL2 1990   9.780   1.238   5.589
  167DOPC   C1A 1991   9.962   1.383   5.056
  167DOPC   D2A 1992   9.718   1.469   4.603
  167DOPC   C3A 1993   9.842   1.490   4.141
  167DOPC   C4A 1994  10.120   1.554   3.725
  167DOPC   C1B 1995   9.551   1.128   5.200
  167DOPC   D2B 1996   9.763   0.971   4.772
  167DOPC   C3B 1997   9.670   1.020   4.314
  167DOPC   C4B 1998   9.507   1.139   3.866
  168DOPC   NC3 1999  14.037   7.686   5.783
  168DOPC   PO4 2000  14.030   7.348   5.568
  168DOPC   GL1 2001  13.939   7.455   5.205
  168DOPC   GL2 2002  13.752   7.692   5.284
  168DOPC   C1A 2003  14.065   7.682   4.861
  168DOPC   D2A 2004  14.045   8.020   4.498
  168DOPC   C3A 2005  13.986   7.827   4.079
  168DOPC   C4A 2006  13.838   7.686   3.623
  168DOPC   C1B 2007  13.659   7.974   4.916
  168DOPC   D2B 2008  13.589   8.250   4.479
  168DOPC   C3B 2009  13.394   8.200   4.041
  168DOPC   C4B 2010  13.307   8.172   3.548
  169DOPC   NC3 2011  16.070   7.547   6.191
  169DOPC   PO4 2012  15.859   7.375   5.894
  169DOPC   GL1 2013  15.880   7.170   5.483
  169DOPC   GL2 2014  15.577   7.120   5.492
  169DOPC   C1A 2015  15.818   7.333   5.053
  169DOPC   D2A 2016  15.703   7.271   4.553
  169DOPC   C3A 2017  15.762   7.504   4.134
  169DOPC   C4A 2018  15.782   7.897   3.817
  169DOPC   C1B 2019  15.385   7.072   5.068
  169DOPC   D2B 2020  15.178   7.123   4.602
  169DOPC   C3B 2021  15.373   7.047   4.179
  169DOPC   C4B 2022  15.527   6.944   3.714
  170DOPC   NC3 2023  17.010   9.042   5.775
  170DOPC   PO4 2024  16.898   8.656   5.757
  170DOPC   GL1 2025  17.051   8.727   5.361
  170DOPC   GL2 2026  17.055   8.427   5.308
  170DOPC   C1A 2027  17.058   8.939   4.957
  170DOPC   D2A 2028  17.013   8.733   4.489
  170DOPC   C3A 2029  17.172   8.684   4.038
  170DOPC   C4A 2030  17.401   8.924   3.662
  170DOPC   C1B 2031  17.213   8.448   4.889
  170DOPC   D2B 2032  17.394   8.377   4.424
  170DOPC   C3B 2033  17.670   8.676   4.169
  170DOPC   C4B 2034  17.786   9.128   3.969
  171DOPC   NC3 2035   3.231   4.485   5.761
  171DOPC   PO4 2036   3.459   4.815   5.743
  171DOPC   GL1 2037   3.339   4.814   5.328
  171DOPC   GL2 2038   3.056   4.781   5.424
  171DOPC   C1A 2039   3.443   4.610   4.918
  171DOPC   D2A 2040   3.635   4.388   4.482
  171DOPC   C3A 2041   3.704   4.393   3.999
  171DOPC   C4A 2042   3.744   4.398   3.493
  171DOPC   C1B 2043   2.937   4.659   5.031
  171DOPC   D2B 2044   3.073   4.302   4.690
  171DOPC   C3B 2045   3.203   4.226   4.239
  171DOPC   C4B 2046   3.282   4.216   3.745
  172DOPC   NC3 2047   5.590   9.609   5.742
  172DOPC   PO4 2048   5.359   9.931   5.637
  172DOPC   GL1 2049   5.553   0.040   5.238
  172DOPC   GL2 2050   5.672   9.761   5.284
  172DOPC   C1A 2051   5.539   0.114   4.776
  172DOPC   D2A 2052   5.486   0.136   4.263
  172DOPC   C3A 2053   5.404   9.944   3.821
  172DOPC   C4A 2054   5.253   9.675   3.415
  172DOPC   C1B 2055   5.871   9.738   4.898
  172DOPC   D2B 2056   6.064   9.775   4.440
  172DOPC   C3B 2057   5.806   9.701   4.053
  172DOPC   C4B 2058   5.685   9.491   3.612
  173DOPC   NC3 2059  18.206   3.734   6.085
  173DOPC   PO4 2060  18.038   3.480   5.823
  173DOPC   GL1 2061  18.258   3.427   5.457
  173DOPC   GL2 2062  18.122   3.166   5.438
  173DOPC   C1A 2063  18.247   3.614   5.034
  173DOPC   D2A 2064  18.210   3.877   4.593
  173DOPC   C3A 2065  18.235   3.820   4.123
  173DOPC   C4A 2066  18.125   3.750   3.646
  173DOPC   C1B 2067  17.842   3.286   5.133
  173DOPC   D2B 2068  17.716   3.288   4.662
  173DOPC   C3B 2069  17.986   3.403   4.313
  173DOPC   C4B 2070  18.272   3.338   3.920
  174DOPC   NC3 2071   8.108   8.774   6.087
  174DOPC   PO4 2072   8.206   9.001   5.765
  174DOPC   GL1 2073   8.249   8.872   5.384
  174DOPC   GL2 2074   8.495   8.707   5.406
  174DOPC   C1A 2075   8.104   8.879   4.955
  174DOPC   D2A 2076   8.141   8.982   4.469
  174DOPC   C3A 2077   7.880   8.909   4.091
  174DOPC   C4A 2078   7.512   8.858   3.772
  174DOPC   C1B 2079   8.389   8.485   5.038
  174DOPC   D2B 2080   8.201   8.444   4.560
  174DOPC   C3B 2081   8.313   8.609   4.124
  174DOPC   C4B 2082   8.286   8.924   3.727
  175DOPC   NC3 2083   2.726   5.831   5.747
  175DOPC   PO4 2084   2.360   5.972   5.661
  175DOPC   GL1 2085   2.442   5.909   5.230
  175DOPC   GL2 2086   2.500   5.618   5.316
  175DOPC   C1A 2087   2.560   5.932   4.785
  175DOPC   D2A 2088   2.647   5.916   4.278
  175DOPC   C3A 2089   2.518   5.856   3.816
  175DOPC   C4A 2090   2.530   5.794   3.315
  175DOPC   C1B 2091   2.831   5.536   5.027
  175DOPC   D2B 2092   3.077   5.405   4.594
  175DOPC   C3B 2093   3.015   5.509   4.138
  175DOPC   C4B 2094   2.964   5.597   3.650
  176DOPC   NC3 2095  18.775   6.623   6.187
  176DOPC   PO4 2096  19.014   6.670   5.864
  176DOPC   GL1 2097  18.770   6.598   5.499
  176DOPC   GL2 2098  18.797   6.902   5.495
  176DOPC   C1A 2099  18.684   6.584   5.063
  176DOPC   D2A 2100  18.811   6.673   4.584
  176DOPC   C3A 2101  18.646   6.664   4.132
  176DOPC   C4A 2102  18.564   6.554   3.652
  176DOPC   C1B 2103  19.053   6.917   5.141
  176DOPC   D2B 2104  19.200   7.010   4.653
  176DOPC   C3B 2105  19.142   6.844   4.202
  176DOPC   C4B 2106  19.061   6.529   3.820
  177DOPC   NC3 2107   5.813   4.781   5.834
  177DOPC   PO4 2108   6.015   4.723   5.496
  177DOPC   GL1 2109   5.660   4.920   5.364
  177DOPC   GL2 2110   5.831   5.166   5.502
  177DOPC   C1A 2111   5.656   4.958   4.907
  177DOPC   D2A 2112   5.634   5.065   4.409
  177DOPC   C3A 2113   5.805   4.924   3.982
  177DOPC   C4A 2114   5.934   4.678   3.573
  177DOPC   C1B 2115   6.021   5.290   5.110
  177DOPC   D2B 2116   6.103   5.234   4.606
  177DOPC   C3B 2117   5.998   5.346   4.156
  177DOPC   C4B 2118   5.897   5.407   3.679
  178DOPC   NC3 2119   9.690   1.878   6.161
  178DOPC   PO4 2120   9.800   1.635   5.847
  178DOPC   GL1 2121   9.886   1.713   5.415
  178DOPC   GL2 2122   9.622   1.575   5.369
  178DOPC   C1A 2123  10.018   1.875   5.013
  178DOPC   D2A 2124  10.139   1.765   4.537
  178DOPC   C3A 2125  10.172   1.913   4.092
  178DOPC   C4A 2126  10.225   2.077   3.622
  178DOPC   C1B 2127   9.418   1.615   4.988
  178DOPC   D2B 2128   9.109   1.683   4.595
  178DOPC   C3B 2129   9.431   1.815   4.257
  178DOPC   C4B 2130   9.698   1.892   3.829
  179DOPC   NC3 2131  13.617   6.368   6.052
  179DOPC   PO4 2132  13.565   6.705   5.840
  179DOPC   GL1 2133  13.574   6.563   5.438
  179DOPC   GL2 2134  13.868   6.456   5.468
  179DOPC   C1A 2135  13.533   6.486   4.994
  179DOPC   D2A 2136  13.483   6.498   4.490
  179DOPC   C3A 2137  13.363   6.741   4.098
  179DOPC   C4A 2138  13.243   6.893   3.633
  179DOPC   C1B 2139  14.027   6.327   5.051
  179DOPC   D2B 2140  14.060   6.226   4.536
  179DOPC   C3B 2141  13.862   6.404   4.129
  179DOPC   C4B 2142  13.650   6.560   3.698
  180DOPC   NC3 2143   8.724   9.608   6.149
  180DOPC   PO4 2144   8.752   9.984   6.007
  180DOPC   GL1 2145   8.633   9.873   5.592
  180DOPC   GL2 2146   8.830   9.623   5.607
  180DOPC   C1A 2147   8.625   9.941   5.142
  180DOPC   D2A 2148   8.717   0.018   4.643
  180DOPC   C3A 2149   8.595   9.894   4.208
  180DOPC   C4A 2150   8.391   9.744   3.780
  180DOPC   C1B 2151   8.803   9.456   5.178
  180DOPC   D2B 2152   8.792   9.282   4.693
  180DOPC   C3B 2153   8.871   9.457   4.256
  180DOPC   C4B 2154   8.900   9.649   3.795
  181DOPC   NC3 2155  15.658   5.264   6.024
  181DOPC   PO4 2156  15.703   5.551   5.749
  181DOPC   GL1 2157  15.781   5.338   5.432
  181DOPC   GL2 2158  15.679   5.069   5.454
  181DOPC   C1A 2159  16.069   5.401   5.101
  181DOPC   D2A 2160  16.298   5.578   4.668
  181DOPC   C3A 2161  16.254   5.495   4.206
  181DOPC   C4A 2162  16.118   5.465   3.725
  181DOPC   C1B 2163  15.620   5.137   5.042
  181DOPC   D2B 2164  15.848   5.318   4.650
  181DOPC   C3B 2165  15.796   5.279   4.201
  181DOPC   C4B 2166  15.767   5.087   3.765
  182DOPC   NC3 2167   2.797   2.623   6.019
  182DOPC   PO4 2168   2.494   2.693   5.776
  182DOPC   GL1 2169   2.618   2.568   5.382
  182DOPC   GL2 2170   2.894   2.711   5.482
  182DOPC   C1A 2171   2.444   2.686   4.967
  182DOPC   D2A 2172   2.393   2.785   4.460
  182DOPC   C3A 2173   2.301   2.753   3.984
  182DOPC   C4A 2174   2.255   2.778   3.480
  182DOPC   C1B 2175   2.906   2.892   5.085
  182DOPC   D2B 2176   3.065   2.980   4.613
  182DOPC   C3B 2177   2.899   2.912   4.175
  182DOPC   C4B 2178   2.732   2.856   3.702
  183DOPC   NC3 2179   0.883   3.459   6.082
  183DOPC   PO4 2180   0.654   3.565   5.764
  183DOPC   GL1 2181   0.646   3.372   5.336
  183DOPC   GL2 2182   0.915   3.259   5.430
  183DOPC   C1A 2183   0.711   3.432   4.900
  183DOPC   D2A 2184   0.738   3.590   4.419
  183DOPC   C3A 2185   0.789   3.427   3.983
  183DOPC   C4A 2186   0.892   3.338   3.496
  183DOPC   C1B 2187   1.220   3.359   5.100
  183DOPC   D2B 2188   1.536   3.276   4.711
  183DOPC   C3B 2189   1.422   3.387   4.251
  183DOPC   C4B 2190   1.264   3.530   3.794
  184DOPC   NC3 2191  12.087   0.592   6.027
  184DOPC   PO4 2192  11.841   0.717   5.734
  184DOPC   GL1 2193  12.059   0.671   5.347
  184DOPC   GL2 2194  12.148   0.380   5.427
  184DOPC   C1A 2195  11.973   0.631   4.899
  184DOPC   D2A 2196  11.953   0.575   4.387
  184DOPC   C3A 2197  12.025   0.667   3.923
  184DOPC   C4A 2198  12.015   0.800   3.444
  184DOPC   C1B 2199  12.087   0.159   5.017
  184DOPC   D2B 2200  11.995   0.078   4.520
  184DOPC   C3B 2201  11.987   0.161   4.047
  184DOPC   C4B 2202  11.913   0.280   3.559
  185DOPC   NC3 2203   3.629   2.811   5.778
  185DOPC   PO4 2204   3.264   2.652   5.811
  185DOPC   GL1 2205   3.332   2.470   5.431
  185DOPC   GL2 2206   3.608   2.629   5.352
  185DOPC   C1A 2207   3.191   2.438   5.019
  185DOPC   D2A 2208   3.389   2.577   4.579
  185DOPC   C3A 2209   3.216   2.504   4.151
  185DOPC   C4A 2210   3.046   2.412   3.703
  185DOPC   C1B 2211   3.814   2.657   4.932
  185DOPC   D2B 2212   3.893   2.651   4.434
  185DOPC   C3B 2213   3.616   2.811   4.097
  185DOPC   C4B 2214   3.258   2.912   3.764
  186DOPC   NC3 2215   4.427   2.696   5.879
  186DOPC   PO4 2216   4.097   2.671   5.666
  186DOPC   GL1 2217   4.408   2.542   5.380
  186DOPC   GL2 2218   4.508   2.790   5.431
  186DOPC   C1A 2219   4.506   2.528   4.944
  186DOPC   D2A 2220   4.425   2.706   4.484
  186DOPC   C3A 2221   4.544   2.740   4.026
  186DOPC   C4A 2222   4.683   2.658   3.559
  186DOPC   C1B 2223   4.234   2.921   5.102
  186DOPC   D2B 2224   4.084   3.076   4.659
  186DOPC   C3B 2225   4.118   3.056   4.193
  186DOPC   C4B 2226   4.033   2.759   3.811
  187DOPC   NC3 2227   9.049   7.969   5.976
  187DOPC   PO4 2228   8.808   7.910   5.651
  187DOPC   GL1 2229   8.626   8.199   5.369
  187DOPC   GL2 2230   8.822   8.419   5.448
  187DOPC   C1A 2231   8.737   8.152   4.933
  187DOPC   D2A 2232   8.823   8.291   4.462
  187DOPC   C3A 2233   8.823   8.162   4.000
  187DOPC   C4A 2234   8.686   7.820   3.666
  187DOPC   C1B 2235   8.938   8.610   5.044
  187DOPC   D2B 2236   9.078   8.768   4.570
  187DOPC   C3B 2237   8.918   8.648   4.127
  187DOPC   C4B 2238   8.662   8.601   3.701
  188DOPC   NC3 2239  16.212   3.834   5.589
  188DOPC   PO4 2240  16.003   3.497   5.517
  188DOPC   GL1 2241  15.908   3.510   5.088
  188DOPC   GL2 2242  15.632   3.628   5.165
  188DOPC   C1A 2243  15.943   3.313   4.676
  188DOPC   D2A 2244  16.055   3.086   4.250
  188DOPC   C3A 2245  15.961   3.503   4.062
  188DOPC   C4A 2246  15.742   3.829   3.753
  188DOPC   C1B 2247  15.438   3.388   4.858
  188DOPC   D2B 2248  15.271   3.529   4.410
  188DOPC   C3B 2249  15.455   3.467   3.980
  188DOPC   C4B 2250  15.776   3.228   3.661
  189DOPC   NC3 2251   7.549   0.688   5.903
  189DOPC   PO4 2252   7.731   0.467   5.615
  189DOPC   GL1 2253   7.623   0.864   5.415
  189DOPC   GL2 2254   7.367   0.780   5.479
  189DOPC   C1A 2255   7.540   0.905   4.991
  189DOPC   D2A 2256   7.328   0.741   4.572
  189DOPC   C3A 2257   7.356   0.686   4.102
  189DOPC   C4A 2258   7.345   0.557   3.619
  189DOPC   C1B 2259   7.227   0.526   5.157
  189DOPC   D2B 2260   7.034   0.319   4.752
  189DOPC   C3B 2261   7.015   0.283   4.283
  189DOPC   C4B 2262   6.967   0.227   3.800
  190DOPC   NC3 2263   8.184   5.482   5.878
  190DOPC   PO4 2264   8.202   5.094   5.769
  190DOPC   GL1 2265   8.053   4.816   5.458
  190DOPC   GL2 2266   7.770   4.894   5.512
  190DOPC   C1A 2267   8.079   4.728   5.021
  190DOPC   D2A 2268   8.063   4.626   4.528
  190DOPC   C3A 2269   8.155   4.801   4.094
  190DOPC   C4A 2270   8.259   5.103   3.717
  190DOPC   C1B 2271   7.578   4.808   5.121
  190DOPC   D2B 2272   7.554   4.632   4.638
  190DOPC   C3B 2273   7.661   4.684   4.166
  190DOPC   C4B 2274   7.772   4.856   3.699
  191DOPC   NC3 2275  18.540   2.029   5.867
  191DOPC   PO4 2276  18.668   1.743   5.619
  191DOPC   GL1 2277  18.647   1.756   5.174
  191DOPC   GL2 2278  18.949   1.737   5.204
  191DOPC   C1A 2279  18.631   1.867   4.737
  191DOPC   D2A 2280  18.654   1.946   4.225
  191DOPC   C3A 2281  18.596   2.194   3.806
  191DOPC   C4A 2282  18.516   2.472   3.383
  191DOPC   C1B 2283  19.133   1.766   4.805
  191DOPC   D2B 2284  19.305   1.695   4.345
  191DOPC   C3B 2285  19.155   1.792   3.913
  191DOPC   C4B 2286  19.095   1.853   3.429
  192DOPC   NC3 2287  12.762   6.296   5.664
  192DOPC   PO4 2288  13.141   6.404   5.736
  192DOPC   GL1 2289  13.135   6.506   5.282
  192DOPC   GL2 2290  12.847   6.614   5.333
  192DOPC   C1A 2291  13.055   6.461   4.833
  192DOPC   D2A 2292  12.945   6.411   4.341
  192DOPC   C3A 2293  12.930   6.503   3.868
  192DOPC   C4A 2294  12.843   6.683   3.401
  192DOPC   C1B 2295  12.589   6.399   5.022
  192DOPC   D2B 2296  12.533   6.139   4.579
  192DOPC   C3B 2297  12.480   6.270   4.111
  192DOPC   C4B 2298  12.479   6.379   3.619
  193DOPC   NC3 2299   0.367   3.237   6.126
  193DOPC   PO4 2300   0.159   3.492   5.897
  193DOPC   GL1 2301   0.216   3.444   5.504
  193DOPC   GL2 2302   0.351   3.707   5.423
  193DOPC   C1A 2303   0.171   3.323   5.095
  193DOPC   D2A 2304   0.290   3.389   4.606
  193DOPC   C3A 2305   0.270   3.473   4.137
  193DOPC   C4A 2306   0.401   3.518   3.651
  193DOPC   C1B 2307   0.350   3.789   4.969
  193DOPC   D2B 2308   0.352   3.939   4.483
  193DOPC   C3B 2309   0.514   3.909   4.035
  193DOPC   C4B 2310   0.816   3.818   3.657
  194DOPC   NC3 2311  15.995   3.179   5.919
  194DOPC   PO4 2312  15.767   2.923   5.720
  194DOPC   GL1 2313  15.429   3.048   5.496
  194DOPC   GL2 2314  15.618   3.247   5.379
  194DOPC   C1A 2315  15.331   2.939   5.092
  194DOPC   D2A 2316  15.502   2.910   4.620
  194DOPC   C3A 2317  15.400   2.988   4.173
  194DOPC   C4A 2318  15.243   3.089   3.715
  194DOPC   C1B 2319  15.848   3.008   5.065
  194DOPC   D2B 2320  16.005   2.758   4.657
  194DOPC   C3B 2321  15.799   2.643   4.242
  194DOPC   C4B 2322  15.636   2.714   3.769
  195DOPC   NC3 2323  12.729   2.498   6.161
  195DOPC   PO4 2324  12.950   2.561   5.829
  195DOPC   GL1 2325  12.982   2.850   5.518
  195DOPC   GL2 2326  12.683   2.860   5.498
  195DOPC   C1A 2327  13.045   2.636   5.124
  195DOPC   D2A 2328  13.203   2.462   4.681
  195DOPC   C3A 2329  12.981   2.420   4.278
  195DOPC   C4A 2330  12.783   2.397   3.820
  195DOPC   C1B 2331  12.583   2.828   5.077
  195DOPC   D2B 2332  12.506   2.623   4.617
  195DOPC   C3B 2333  12.599   2.730   4.167
  195DOPC   C4B 2334  12.820   2.925   3.765
  196DOPC   NC3 2335   4.955   1.630   5.852
  196DOPC   PO4 2336   4.744   1.925   5.683
  196DOPC   GL1 2337   4.886   2.002   5.292
  196DOPC   GL2 2338   5.127   2.153   5.443
  196DOPC   C1A 2339   4.958   1.764   4.894
  196DOPC   D2A 2340   5.030   1.640   4.408
  196DOPC   C3A 2341   4.861   1.849   4.017
  196DOPC   C4A 2342   4.609   2.155   3.720
  196DOPC   C1B 2343   5.353   2.026   5.102
  196DOPC   D2B 2344   5.394   1.929   4.617
  196DOPC   C3B 2345   5.363   2.038   4.165
  196DOPC   C4B 2346   5.233   2.073   3.693
  197DOPC   NC3 2347   8.311   8.077   5.710
  197DOPC   PO4 2348   8.259   8.477   5.719
  197DOPC   GL1 2349   7.993   8.518   5.349
  197DOPC   GL2 2350   7.915   8.246   5.470
  197DOPC   C1A 2351   7.886   8.350   4.952
  197DOPC   D2A 2352   7.837   8.079   4.532
  197DOPC   C3A 2353   7.933   8.227   4.100
  197DOPC   C4A 2354   7.949   8.532   3.717
  197DOPC   C1B 2355   8.200   8.027   5.194
  197DOPC   D2B 2356   8.315   7.944   4.716
  197DOPC   C3B 2357   8.392   8.067   4.264
  197DOPC   C4B 2358   8.347   8.203   3.779
  198DOPC   NC3 2359  18.237   9.318   5.765
  198DOPC   PO4 2360  18.483   9.632   5.757
  198DOPC   GL1 2361  18.373   9.872   5.409
  198DOPC   GL2 2362  18.643   0.019   5.431
  198DOPC   C1A 2363  18.309   9.708   4.983
  198DOPC   D2A 2364  18.334   9.470   4.529
  198DOPC   C3A 2365  18.122   9.536   4.098
  198DOPC   C4A 2366  17.930   9.582   3.634
  198DOPC   C1B 2367  18.591   0.155   5.004
  198DOPC   D2B 2368  18.404   0.225   4.532
  198DOPC   C3B 2369  18.298   0.157   4.069
  198DOPC   C4B 2370  18.096   0.110   3.619
  199DOPC   NC3 2371   0.453   2.215   6.071
  199DOPC   PO4 2372   0.535   2.269   5.689
  199DOPC   GL1 2373   0.293   2.123   5.380
  199DOPC   GL2 2374   0.414   1.834   5.386
  199DOPC   C1A 2375   0.324   2.097   4.951
  199DOPC   D2A 2376   0.411   1.958   4.481
  199DOPC   C3A 2377   0.427   2.044   4.026
  199DOPC   C4A 2378   0.814   2.058   3.707
  199DOPC   C1B 2379   0.402   1.592   4.985
  199DOPC   D2B 2380   0.297   1.450   4.489
  199DOPC   C3B 2381   0.333   1.549   4.021
  199DOPC   C4B 2382   0.400   1.794   3.579
  200DOPC   NC3 2383  12.785   3.616   5.860
  200DOPC   PO4 2384  12.400   3.544   5.764
  200DOPC   GL1 2385  12.289   3.403   5.346
  200DOPC   GL2 2386  12.010   3.374   5.430
  200DOPC   C1A 2387  12.213   3.465   4.896
  200DOPC   D2A 2388  12.095   3.434   4.409
  200DOPC   C3A 2389  12.083   3.622   3.987
  200DOPC   C4A 2390  12.052   3.918   3.587
  200DOPC   C1B 2391  11.799   3.192   5.070
  200DOPC   D2B 2392  11.717   3.131   4.563
  200DOPC   C3B 2393  11.649   3.365   4.148
  200DOPC   C4B 2394  11.617   3.749   3.835
  201DOPC   NC3 2395   2.751   0.617   5.770
  201DOPC   PO4 2396   2.821   0.217   5.763
  201DOPC   GL1 2397   2.899   0.202   5.373
  201DOPC   GL2 2398   2.654   0.346   5.256
  201DOPC   C1A 2399   3.118   0.301   5.017
  201DOPC   D2A 2400   3.194   0.491   4.545
  201DOPC   C3A 2401   3.117   0.565   4.071
  201DOPC   C4A 2402   2.761   0.649   3.713
  201DOPC   C1B 2403   2.668   0.310   4.790
  201DOPC   D2B 2404   2.760   0.279   4.279
  201DOPC   C3B 2405   2.876   0.156   3.819
  201DOPC   C4B 2406   2.871   0.089   3.314
  202DOPC   NC3 2407   2.021   0.331   5.859
  202DOPC   PO4 2408   2.338   0.374   5.607
  202DOPC   GL1 2409   2.093   0.458   5.330
  202DOPC   GL2 2410   2.016   0.748   5.427
  202DOPC   C1A 2411   2.170   0.387   4.901
  202DOPC   D2A 2412   2.315   0.484   4.434
  202DOPC   C3A 2413   2.304   0.277   4.006
  202DOPC   C4A 2414   1.899   0.173   3.732
  202DOPC   C1B 2415   1.926   0.833   4.991
  202DOPC   D2B 2416   1.892   0.858   4.486
  202DOPC   C3B 2417   2.058   0.730   4.060
  202DOPC   C4B 2418   2.212   0.594   3.597
  203DOPC   NC3 2419  14.042   3.294   5.712
  203DOPC   PO4 2420  14.169   3.649   5.575
  203DOPC   GL1 2421  14.307   3.591   5.219
  203DOPC   GL2 2422  14.577   3.736   5.248
  203DOPC   C1A 2423  14.095   3.481   4.847
  203DOPC   D2A 2424  13.798   3.419   4.459
  203DOPC   C3A 2425  13.970   3.539   4.043
  203DOPC   C4A 2426  14.166   3.649   3.599
  203DOPC   C1B 2427  14.635   3.676   4.819
  203DOPC   D2B 2428  14.682   3.640   4.325
  203DOPC   C3B 2429  14.553   3.503   3.894
  203DOPC   C4B 2430  14.603   3.442   3.410
  204DOPC   NC3 2431   5.952   8.867   5.673
  204DOPC   PO4 2432   5.627   9.077   5.590
  204DOPC   GL1 2433   5.644   8.860   5.266
  204DOPC   GL2 2434   5.829   8.615   5.310
  204DOPC   C1A 2435   5.741   9.091   4.899
  204DOPC   D2A 2436   5.863   9.296   4.460
  204DOPC   C3A 2437   5.700   9.191   4.037
  204DOPC   C4A 2438   5.543   8.949   3.630
  204DOPC   C1B 2439   6.037   8.456   4.945
  204DOPC   D2B 2440   6.032   8.406   4.442
  204DOPC   C3B 2441   5.734   8.484   4.084
  204DOPC   C4B 2442   5.383   8.459   3.739
  205DOPC   NC3 2443  11.902   6.448   5.906
  205DOPC   PO4 2444  11.904   6.843   5.811
  205DOPC   GL1 2445  11.750   6.866   5.394
  205DOPC   GL2 2446  12.059   6.780   5.358
  205DOPC   C1A 2447  11.802   6.838   4.954
  205DOPC   D2A 2448  11.948   6.828   4.488
  205DOPC   C3A 2449  11.747   6.844   4.069
  205DOPC   C4A 2450  11.674   6.775   3.591
  205DOPC   C1B 2451  12.299   6.818   4.972
  205DOPC   D2B 2452  12.500   6.640   4.544
  205DOPC   C3B 2453  12.322   6.767   4.127
  205DOPC   C4B 2454  12.026   6.486   3.862
  206DOPC   NC3 2455   6.840   5.124   5.841
  206DOPC   PO4 2456   6.675   4.847   5.600
  206DOPC   GL1 2457   6.341   5.044   5.401
  206DOPC   GL2 2458   6.446   5.303   5.546
  206DOPC   C1A 2459   6.390   4.965   4.951
  206DOPC   D2A 2460   6.575   4.729   4.541
  206DOPC   C3A 2461   6.699   4.728   4.081
  206DOPC   C4A 2462   6.813   4.855   3.612
  206DOPC   C1B 2463   6.550   5.423   5.140
  206DOPC   D2B 2464   6.597   5.386   4.643
  206DOPC   C3B 2465   6.481   5.183   4.230
  206DOPC   C4B 2466   6.286   5.024   3.796
  207DOPC   NC3 2467   8.072   1.777   5.769
  207DOPC   PO4 2468   7.850   1.591   5.498
  207DOPC   GL1 2469   8.201   1.511   5.220
  207DOPC   GL2 2470   8.306   1.776   5.340
  207DOPC   C1A 2471   8.174   1.505   4.761
  207DOPC   D2A 2472   8.002   1.508   4.291
  207DOPC   C3A 2473   7.949   1.500   3.823
  207DOPC   C4A 2474   7.892   1.459   3.327
  207DOPC   C1B 2475   8.170   1.978   4.956
  207DOPC   D2B 2476   8.120   2.006   4.444
  207DOPC   C3B 2477   8.380   1.920   4.040
  207DOPC   C4B 2478   8.751   1.897   3.702
  208DOPC   NC3 2479  15.265   3.578   5.918
  208DOPC   PO4 2480  15.092   3.241   5.780
  208DOPC   GL1 2481  15.104   3.337   5.386
  208DOPC   GL2 2482  15.246   3.599   5.413
  208DOPC   C1A 2483  14.927   3.262   4.994
  208DOPC   D2A 2484  15.009   3.090   4.538
  208DOPC   C3A 2485  14.961   3.264   4.109
  208DOPC   C4A 2486  15.012   3.546   3.706
  208DOPC   C1B 2487  15.126   3.757   5.010
  208DOPC   D2B 2488  15.020   3.964   4.561
  208DOPC   C3B 2489  15.075   3.908   4.089
  208DOPC   C4B 2490  15.252   4.002   3.634
  209DOPC   NC3 2491   5.280   8.783   5.828
  209DOPC   PO4 2492   5.570   8.533   5.694
  209DOPC   GL1 2493   5.410   8.459   5.294
  209DOPC   GL2 2494   5.224   8.709   5.357
  209DOPC   C1A 2495   5.569   8.611   4.892
  209DOPC   D2A 2496   5.642   8.818   4.448
  209DOPC   C3A 2497   5.342   8.841   4.080
  209DOPC   C4A 2498   5.011   8.810   3.702
  209DOPC   C1B 2499   5.242   8.992   4.996
  209DOPC   D2B 2500   5.302   9.194   4.529
  209DOPC   C3B 2501   4.963   9.167   4.189
  209DOPC   C4B 2502   4.623   9.121   3.824
  210DOPC   NC3 2503  13.759   2.369   5.874
  210DOPC   PO4 2504  13.377   2.327   5.992
  210DOPC   GL1 2505  13.391   2.407   5.539
  210DOPC   GL2 2506  13.495   2.117   5.542
  210DOPC   C1A 2507  13.545   2.433   5.117
  210DOPC   D2A 2508  13.755   2.566   4.669
  210DOPC   C3A 2509  13.744   2.509   4.194
  210DOPC   C4A 2510  13.910   2.321   3.762
  210DOPC   C1B 2511  13.537   1.849   5.166
  210DOPC   D2B 2512  13.403   1.570   4.740
  210DOPC   C3B 2513  13.241   1.564   4.273
  210DOPC   C4B 2514  13.132   1.656   3.782
  211DOPC   NC3 2515  19.668   4.273   5.494
  211DOPC   PO4 2516  19.796   4.084   5.814
  211DOPC   GL1 2517  19.940   3.839   5.496
  211DOPC   GL2 2518  19.667   3.738   5.455
  211DOPC   C1A 2519  19.947   4.070   5.095
  211DOPC   D2A 2520  19.924   4.207   4.594
  211DOPC   C3A 2521  19.716   4.393   4.198
  211DOPC   C4A 2522  19.474   4.575   3.802
  211DOPC   C1B 2523  19.407   3.944   5.187
  211DOPC   D2B 2524  19.440   4.105   4.732
  211DOPC   C3B 2525  19.491   3.962   4.298
  211DOPC   C4B 2526  19.573   4.028   3.811
  212DOPC   NC3 2527  11.737   5.661   5.567
  212DOPC   PO4 2528  11.904   6.015   5.669
  212DOPC   GL1 2529  12.061   6.326   5.396
  212DOPC   GL2 2530  12.339   6.183   5.448
  212DOPC   C1A 2531  12.064   6.354   4.936
  212DOPC   D2A 2532  12.065   6.331   4.424
  212DOPC   C3A 2533  11.942   6.029   4.073
  212DOPC   C4A 2534  11.804   5.677   3.752
  212DOPC   C1B 2535  12.383   5.932   5.090
  212DOPC   D2B 2536  12.310   5.683   4.666
  212DOPC   C3B 2537  12.368   5.772   4.208
  212DOPC   C4B 2538  12.365   5.750   3.718
  213DOPC   NC3 2539   5.784   6.578   5.741
  213DOPC   PO4 2540   6.029   6.894   5.681
  213DOPC   GL1 2541   6.067   6.796   5.261
  213DOPC   GL2 2542   5.785   6.687   5.239
  213DOPC   C1A 2543   6.190   6.656   4.851
  213DOPC   D2A 2544   6.060   6.437   4.413
  213DOPC   C3A 2545   6.013   6.417   3.933
  213DOPC   C4A 2546   6.083   6.408   3.426
  213DOPC   C1B 2547   5.695   6.593   4.775
  213DOPC   D2B 2548   5.603   6.601   4.265
  213DOPC   C3B 2549   5.621   6.741   3.801
  213DOPC   C4B 2550   5.594   6.890   3.314
  214DOPC   NC3 2551  11.785   3.030   5.645
  214DOPC   PO4 2552  11.423   2.862   5.668
  214DOPC   GL1 2553  11.391   2.986   5.235
  214DOPC   GL2 2554  11.459   3.266   5.373
  214DOPC   C1A 2555  11.279   3.034   4.786
  214DOPC   D2A 2556  11.271   3.044   4.267
  214DOPC   C3A 2557  11.210   3.139   3.802
  214DOPC   C4A 2558  11.161   3.198   3.294
  214DOPC   C1B 2559  11.409   3.507   5.011
  214DOPC   D2B 2560  11.282   3.475   4.534
  214DOPC   C3B 2561  11.167   3.565   4.091
  214DOPC   C4B 2562  11.202   3.616   3.598
  215DOPC   NC3 2563   5.616   4.301   5.881
  215DOPC   PO4 2564   5.414   4.545   5.635
  215DOPC   GL1 2565   5.668   4.447   5.315
  215DOPC   GL2 2566   5.868   4.285   5.485
  215DOPC   C1A 2567   5.786   4.421   4.882
  215DOPC   D2A 2568   5.861   4.282   4.401
  215DOPC   C3A 2569   5.645   4.455   4.018
  215DOPC   C4A 2570   5.354   4.763   3.751
  215DOPC   C1B 2571   6.053   4.065   5.147
  215DOPC   D2B 2572   6.107   3.853   4.681
  215DOPC   C3B 2573   6.133   3.896   4.202
  215DOPC   C4B 2574   6.037   4.203   3.826
  216DOPC   NC3 2575  19.684   2.816   5.816
  216DOPC   PO4 2576  19.524   2.511   5.626
  216DOPC   GL1 2577  19.902   2.657   5.419
  216DOPC   GL2 2578  19.779   2.905   5.344
  216DOPC   C1A 2579   0.097   2.537   5.043
  216DOPC   D2A 2580   0.025   2.299   4.593
  216DOPC   C3A 2581   0.007   2.339   4.122
  216DOPC   C4A 2582  19.942   2.442   3.639
  216DOPC   C1B 2583  19.637   2.734   4.941
  216DOPC   D2B 2584  19.540   2.520   4.475
  216DOPC   C3B 2585  19.547   2.588   3.998
  216DOPC   C4B 2586  19.697   2.920   3.664
  217DOPC   NC3 2587  17.074   6.848   6.034
  217DOPC   PO4 2588  17.467   6.892   5.951
  217DOPC   GL1 2589  17.545   6.842   5.485
  217DOPC   GL2 2590  17.277   6.674   5.500
  217DOPC   C1A 2591  17.630   6.727   5.041
  217DOPC   D2A 2592  17.387   6.631   4.599
  217DOPC   C3A 2593  17.437   6.674   4.123
  217DOPC   C4A 2594  17.580   6.771   3.646
  217DOPC   C1B 2595  17.206   6.449   5.091
  217DOPC   D2B 2596  17.121   6.197   4.645
  217DOPC   C3B 2597  17.106   6.265   4.166
  217DOPC   C4B 2598  17.205   6.438   3.702
  218DOPC   NC3 2599  11.523   4.397   5.901
  218DOPC   PO4 2600  11.182   4.347   5.679
  218DOPC   GL1 2601  11.219   4.312   5.219
  218DOPC   GL2 2602  11.065   4.046   5.229
  218DOPC   C1A 2603  11.390   4.381   4.784
  218DOPC   D2A 2604  11.441   4.427   4.275
  218DOPC   C3A 2605  11.332   4.565   3.830
  218DOPC   C4A 2606  11.417   4.698   3.351
  218DOPC   C1B 2607  11.183   3.920   4.811
  218DOPC   D2B 2608  11.405   3.930   4.355
  218DOPC   C3B 2609  11.221   4.050   3.942
  218DOPC   C4B 2610  10.824   3.923   3.677
  219DOPC   NC3 2611   1.931   5.739   5.893
  219DOPC   PO4 2612   2.092   5.548   5.575
  219DOPC   GL1 2613   2.049   5.702   5.179
  219DOPC   GL2 2614   2.013   5.990   5.324
  219DOPC   C1A 2615   2.099   5.698   4.717
  219DOPC   D2A 2616   2.124   5.751   4.216
  219DOPC   C3A 2617   2.021   5.485   3.839
  219DOPC   C4A 2618   1.804   5.364   3.399
  219DOPC   C1B 2619   2.122   6.153   4.932
  219DOPC   D2B 2620   2.234   6.188   4.450
  219DOPC   C3B 2621   1.985   6.225   4.049
  219DOPC   C4B 2622   1.826   6.304   3.588
  220DOPC   NC3 2623  14.407   0.659   5.733
  220DOPC   PO4 2624  14.328   0.279   5.623
  220DOPC   GL1 2625  13.959   0.303   5.388
  220DOPC   GL2 2626  14.033   0.612   5.369
  220DOPC   C1A 2627  14.002   0.221   4.947
  220DOPC   D2A 2628  13.986   0.068   4.457
  220DOPC   C3A 2629  14.145   0.155   4.007
  220DOPC   C4A 2630  14.463   0.213   3.617
  220DOPC   C1B 2631  14.164   0.722   4.934
  220DOPC   D2B 2632  14.232   0.801   4.430
  220DOPC   C3B 2633  14.304   0.663   3.986
  220DOPC   C4B 2634  14.154   0.591   3.519
  221DOPC   NC3 2635   1.804   8.912   6.004
  221DOPC   PO4 2636   1.480   8.768   5.813
  221DOPC   GL1 2637   1.682   8.785   5.446
  221DOPC   GL2 2638   1.841   9.034   5.536
  221DOPC   C1A 2639   1.730   8.790   4.996
  221DOPC   D2A 2640   1.886   8.786   4.514
  221DOPC   C3A 2641   1.755   8.822   4.052
  221DOPC   C4A 2642   1.610   8.921   3.576
  221DOPC   C1B 2643   2.071   9.137   5.158
  221DOPC   D2B 2644   2.280   9.134   4.689
  221DOPC   C3B 2645   2.193   9.079   4.228
  221DOPC   C4B 2646   2.106   9.039   3.736
  222DOPC   NC3 2647  17.559   3.644   5.651
  222DOPC   PO4 2648  17.164   3.589   5.593
  222DOPC   GL1 2649  17.349   3.524   5.226
  222DOPC   GL2 2650  17.454   3.254   5.371
  222DOPC   C1A 2651  17.332   3.575   4.776
  222DOPC   D2A 2652  17.343   3.707   4.295
  222DOPC   C3A 2653  17.238   3.636   3.847
  222DOPC   C4A 2654  17.065   3.741   3.397
  222DOPC   C1B 2655  17.334   3.111   4.984
  222DOPC   D2B 2656  17.186   3.101   4.517
  222DOPC   C3B 2657  17.491   3.240   4.210
  222DOPC   C4B 2658  17.744   3.499   3.875
  223DOPC   NC3 2659   4.650   2.208   6.085
  223DOPC   PO4 2660   4.321   2.202   5.865
  223DOPC   GL1 2661   4.182   2.193   5.495
  223DOPC   GL2 2662   4.463   2.111   5.355
  223DOPC   C1A 2663   4.091   2.278   5.095
  223DOPC   D2A 2664   4.125   2.235   4.604
  223DOPC   C3A 2665   4.225   2.344   4.154
  223DOPC   C4A 2666   4.088   2.259   3.687
  223DOPC   C1B 2667   4.481   1.981   4.905
  223DOPC   D2B 2668   4.460   1.903   4.385
  223DOPC   C3B 2669   4.229   1.856   3.957
  223DOPC   C4B 2670   4.111   1.791   3.454
  224DOPC   NC3 2671   7.404   8.094   6.116
  224DOPC   PO4 2672   7.377   8.326   5.774
  224DOPC   GL1 2673   7.181   8.208   5.431
  224DOPC   GL2 2674   7.019   8.401   5.289
  224DOPC   C1A 2675   7.367   8.142   5.037
  224DOPC   D2A 2676   7.343   8.217   4.542
  224DOPC   C3A 2677   7.424   8.034   4.120
  224DOPC   C4A 2678   7.708   7.913   3.727
  224DOPC   C1B 2679   6.971   8.401   4.837
  224DOPC   D2B 2680   7.019   8.568   4.353
  224DOPC   C3B 2681   6.995   8.447   3.893
  224DOPC   C4B 2682   7.034   8.267   3.422
  225DOPC   NC3 2683  10.551   0.014   5.632
  225DOPC   PO4 2684  10.229   9.988   5.394
  225DOPC   GL1 2685  10.528   9.879   5.134
  225DOPC   GL2 2686  10.561   9.596   5.250
  225DOPC   C1A 2687  10.546   9.792   4.713
  225DOPC   D2A 2688  10.319   9.714   4.273
  225DOPC   C3A 2689  10.334   9.786   3.802
  225DOPC   C4A 2690  10.364   9.879   3.306
  225DOPC   C1B 2691  10.382   9.342   4.932
  225DOPC   D2B 2692  10.246   9.220   4.469
  225DOPC   C3B 2693  10.156   9.288   4.007
  225DOPC   C4B 2694  10.117   9.419   3.533
  226DOPC   NC3 2695   4.268   6.653   5.966
  226DOPC   PO4 2696   4.310   6.831   5.608
  226DOPC   GL1 2697   4.673   6.816   5.359
  226DOPC   GL2 2698   4.644   7.121   5.302
  226DOPC   C1A 2699   4.467   6.745   4.972
  226DOPC   D2A 2700   4.232   6.625   4.553
  226DOPC   C3A 2701   4.280   6.823   4.132
  226DOPC   C4A 2702   4.282   7.043   3.688
  226DOPC   C1B 2703   4.511   7.273   4.871
  226DOPC   D2B 2704   4.598   7.472   4.398
  226DOPC   C3B 2705   4.390   7.463   3.968
  226DOPC   C4B 2706   4.104   7.503   3.552
  227DOPC   NC3 2707  19.670   3.602   5.892
  227DOPC   PO4 2708  19.739   3.304   5.634
  227DOPC   GL1 2709  19.625   3.334   5.253
  227DOPC   GL2 2710  19.348   3.453   5.303
  227DOPC   C1A 2711  19.771   3.614   4.956
  227DOPC   D2A 2712  19.893   3.700   4.486
  227DOPC   C3A 2713  19.990   3.931   4.095
  227DOPC   C4A 2714   0.056   3.898   3.609
  227DOPC   C1B 2715  19.258   3.553   4.871
  227DOPC   D2B 2716  19.236   3.454   4.377
  227DOPC   C3B 2717  19.592   3.518   4.074
  227DOPC   C4B 2718  19.902   3.409   3.715
  228DOPC   NC3 2719   5.045   4.150   5.783
  228DOPC   PO4 2720   4.951   3.799   5.611
  228DOPC   GL1 2721   5.097   3.918   5.238
  228DOPC   GL2 2722   5.265   4.159   5.360
  228DOPC   C1A 2723   4.869   4.084   4.884
  228DOPC   D2A 2724   4.575   4.255   4.505
  228DOPC   C3A 2725   4.592   4.247   4.026
  228DOPC   C4A 2726   4.619   4.277   3.525
  228DOPC   C1B 2727   5.284   4.394   4.970
  228DOPC   D2B 2728   5.330   4.448   4.458
  228DOPC   C3B 2729   5.161   4.312   4.020
  228DOPC   C4B 2730   5.144   4.313   3.515
  229DOPC   NC3 2731   0.504   9.527   5.679
  229DOPC   PO4 2732   0.132   9.685   5.690
  229DOPC   GL1 2733   0.064   9.673   5.268
  229DOPC   GL2 2734   0.208   9.400   5.306
  229DOPC   C1A 2735   0.100   9.812   4.838
  229DOPC   D2A 2736   0.302   9.766   4.370
  229DOPC   C3A 2737   0.297   9.881   3.898
  229DOPC   C4A 2738   0.158   0.041   3.433
  229DOPC   C1B 2739   0.383   9.375   4.913
  229DOPC   D2B 2740   0.382   9.231   4.446
  229DOPC   C3B 2741   0.431   9.402   4.018
  229DOPC   C4B 2742   0.809   9.403   3.714
  230DOPC   NC3 2743   5.618   2.011   5.996
  230DOPC   PO4 2744   5.550   2.266   5.695
  230DOPC   GL1 2745   5.727   2.267   5.290
  230DOPC   GL2 2746   5.991   2.151   5.360
  230DOPC   C1A 2747   5.743   2.215   4.848
  230DOPC   D2A 2748   5.861   2.033   4.398
  230DOPC   C3A 2749   5.844   2.147   3.949
  230DOPC   C4A 2750   5.653   2.410   3.595
  230DOPC   C1B 2751   6.133   1.911   4.977
  230DOPC   D2B 2752   6.315   1.793   4.501
  230DOPC   C3B 2753   6.198   1.766   4.028
  230DOPC   C4B 2754   6.094   1.806   3.528
  231DOPC   NC3 2755  13.362   9.979   6.048
  231DOPC   PO4 2756  13.252   0.011   5.664
  231DOPC   GL1 2757  13.484   9.955   5.356
  231DOPC   GL2 2758  13.369   9.686   5.269
  231DOPC   C1A 2759  13.498   0.112   4.966
  231DOPC   D2A 2760  13.427   0.220   4.491
  231DOPC   C3A 2761  13.615   0.086   4.084
  231DOPC   C4A 2762  13.765   9.886   3.668
  231DOPC   C1B 2763  13.379   9.618   4.843
  231DOPC   D2B 2764  13.555   9.702   4.394
  231DOPC   C3B 2765  13.421   9.597   3.949
  231DOPC   C4B 2766  13.033   9.319   3.802
  232DOPC   NC3 2767  19.406   5.513   5.798
  232DOPC   PO4 2768  19.767   5.575   5.633
  232DOPC   GL1 2769  19.504   5.571   5.322
  232DOPC   GL2 2770  19.401   5.864   5.408
  232DOPC   C1A 2771  19.691   5.425   4.947
  232DOPC   D2A 2772  19.964   5.230   4.564
  232DOPC   C3A 2773  19.932   5.362   4.112
  232DOPC   C4A 2774  19.703   5.608   3.745
  232DOPC   C1B 2775  19.306   6.008   4.995
  232DOPC   D2B 2776  19.293   6.131   4.501
  232DOPC   C3B 2777  19.619   6.070   4.150
  232DOPC   C4B 2778  19.933   6.108   3.749
  233DOPC   NC3 2779  13.699   7.202   5.935
  233DOPC   PO4 2780  13.546   7.488   5.702
  233DOPC   GL1 2781  13.527   7.283   5.324
  233DOPC   GL2 2782  13.648   7.037   5.482
  233DOPC   C1A 2783  13.597   7.447   4.895
  233DOPC   D2A 2784  13.629   7.715   4.455
  233DOPC   C3A 2785  13.492   7.634   3.996
  233DOPC   C4A 2786  13.347   7.445   3.544
  233DOPC   C1B 2787  13.870   6.822   5.169
  233DOPC   D2B 2788  13.936   6.697   4.677
  233DOPC   C3B 2789  13.860   6.904   4.250
  233DOPC   C4B 2790  13.632   7.129   3.855
  234DOPC   NC3 2791   0.553   0.033   5.829
  234DOPC   PO4 2792   0.191   0.188   5.778
  234DOPC   GL1 2793   0.203   0.094   5.355
  234DOPC   GL2 2794   0.441   9.891   5.370
  234DOPC   C1A 2795   0.313   0.323   4.979
  234DOPC   D2A 2796   0.452   0.572   4.557
  234DOPC   C3A 2797   0.247   0.264   4.267
  234DOPC   C4A 2798  19.871   0.129   3.977
  234DOPC   C1B 2799   0.579   9.883   4.923
  234DOPC   D2B 2800   0.718   0.074   4.465
  234DOPC   C3B 2801   0.675   0.222   4.021
  234DOPC   C4B 2802   0.319   0.420   3.740
  235DOPC   NC3 2803  19.056   2.771   5.845
  235DOPC   PO4 2804  18.897   2.404   5.889
  235DOPC   GL1 2805  18.629   2.361   5.530
  235DOPC   GL2 2806  18.662   2.680   5.500
  235DOPC   C1A 2807  18.710   2.235   5.101
  235DOPC   D2A 2808  18.914   2.263   4.628
  235DOPC   C3A 2809  18.821   2.463   4.206
  235DOPC   C4A 2810  18.744   2.707   3.780
  235DOPC   C1B 2811  18.664   2.761   5.041
  235DOPC   D2B 2812  18.541   2.889   4.554
  235DOPC   C3B 2813  18.831   3.017   4.198
  235DOPC   C4B 2814  19.300   3.054   4.023
  236DOPC   NC3 2815   6.317   5.887   5.875
  236DOPC   PO4 2816   6.234   6.275   5.798
  236DOPC   GL1 2817   6.036   6.336   5.394
  236DOPC   GL2 2818   5.896   6.075   5.487
  236DOPC   C1A 2819   5.989   6.198   4.966
  236DOPC   D2A 2820   5.901   5.963   4.521
  236DOPC   C3A 2821   5.970   5.908   4.049
  236DOPC   C4A 2822   5.931   5.915   3.553
  236DOPC   C1B 2823   5.793   5.766   5.165
  236DOPC   D2B 2824   5.679   5.491   4.756
  236DOPC   C3B 2825   5.592   5.603   4.305
  236DOPC   C4B 2826   5.519   5.753   3.842
  237DOPC   NC3 2827  19.761   2.220   5.978
  237DOPC   PO4 2828   0.048   2.418   5.787
  237DOPC   GL1 2829  19.864   2.222   5.453
  237DOPC   GL2 2830  19.768   1.969   5.577
  237DOPC   C1A 2831  19.737   2.186   5.022
  237DOPC   D2A 2832  19.585   2.025   4.573
  237DOPC   C3A 2833  19.553   2.076   4.090
  237DOPC   C4A 2834  19.542   2.097   3.583
  237DOPC   C1B 2835  19.959   1.779   5.224
  237DOPC   D2B 2836  20.001   1.773   4.733
  237DOPC   C3B 2837  19.967   1.832   4.277
  237DOPC   C4B 2838  19.957   1.901   3.799
  238DOPC   NC3 2839   9.076   6.985   5.842
  238DOPC   PO4 2840   8.736   7.013   5.632
  238DOPC   GL1 2841   8.917   7.228   5.284
  238DOPC   GL2 2842   8.775   7.474   5.433
  238DOPC   C1A 2843   8.946   7.322   4.831
  238DOPC   D2A 2844   8.771   7.278   4.343
  238DOPC   C3A 2845   8.774   7.329   3.852
  238DOPC   C4A 2846   8.840   7.403   3.354
  238DOPC   C1B 2847   8.650   7.671   5.055
  238DOPC   D2B 2848   8.759   7.765   4.561
  238DOPC   C3B 2849   8.982   7.700   4.147
  238DOPC   C4B 2850   9.166   7.635   3.691
  239DOPC   NC3 2851   0.673   1.790   5.786
  239DOPC   PO4 2852   0.925   2.063   5.950
  239DOPC   GL1 2853   0.971   2.100   5.532
  239DOPC   GL2 2854   1.263   1.983   5.566
  239DOPC   C1A 2855   0.798   2.012   5.121
  239DOPC   D2A 2856   0.876   2.097   4.626
  239DOPC   C3A 2857   0.872   1.877   4.201
  239DOPC   C4A 2858   0.810   1.553   3.810
  239DOPC   C1B 2859   1.315   1.906   5.133
  239DOPC   D2B 2860   1.279   1.747   4.653
  239DOPC   C3B 2861   1.379   1.736   4.190
  239DOPC   C4B 2862   1.285   1.729   3.702
  240DOPC   NC3 2863  12.121   2.892   6.012
  240DOPC   PO4 2864  12.290   3.056   5.684
  240DOPC   GL1 2865  12.129   2.944   5.292
  240DOPC   GL2 2866  12.217   2.661   5.360
  240DOPC   C1A 2867  12.174   2.964   4.837
  240DOPC   D2A 2868  12.478   3.118   4.475
  240DOPC   C3A 2869  12.383   3.166   4.012
  240DOPC   C4A 2870  12.063   3.156   3.644
  240DOPC   C1B 2871  12.142   2.455   4.974
  240DOPC   D2B 2872  12.008   2.342   4.498
  240DOPC   C3B 2873  11.997   2.513   4.053
  240DOPC   C4B 2874  11.950   2.660   3.572
  241DOPC   NC3 2875   6.648   3.796   5.960
  241DOPC   PO4 2876   6.353   3.950   5.755
  241DOPC   GL1 2877   6.568   3.824   5.453
  241DOPC   GL2 2878   6.567   3.535   5.536
  241DOPC   C1A 2879   6.493   3.828   5.027
  241DOPC   D2A 2880   6.608   3.734   4.552
  241DOPC   C3A 2881   6.606   3.717   4.097
  241DOPC   C4A 2882   6.371   3.853   3.690
  241DOPC   C1B 2883   6.680   3.337   5.149
  241DOPC   D2B 2884   6.718   3.179   4.663
  241DOPC   C3B 2885   6.713   3.219   4.187
  241DOPC   C4B 2886   6.644   3.368   3.711
  242DOPC   NC3 2887   5.211   0.918   5.859
  242DOPC   PO4 2888   4.980   0.736   5.581
  242DOPC   GL1 2889   4.685   1.014   5.347
  242DOPC   GL2 2890   4.929   1.190   5.296
  242DOPC   C1A 2891   4.506   1.015   4.929
  242DOPC   D2A 2892   4.448   0.984   4.428
  242DOPC   C3A 2893   4.836   0.878   4.176
  242DOPC   C4A 2894   5.250   0.916   3.887
  242DOPC   C1B 2895   5.012   1.202   4.841
  242DOPC   D2B 2896   5.211   1.162   4.365
  242DOPC   C3B 2897   4.965   1.333   3.988
  242DOPC   C4B 2898   4.520   1.155   3.854
  243DOPC   NC3 2899  16.298   5.874   6.246
  243DOPC   PO4 2900  16.124   5.862   5.894
  243DOPC   GL1 2901  16.229   6.098   5.525
  243DOPC   GL2 2902  16.407   5.849   5.525
  243DOPC   C1A 2903  16.425   6.203   5.132
  243DOPC   D2A 2904  16.610   6.195   4.665
  243DOPC   C3A 2905  16.542   6.294   4.206
  243DOPC   C4A 2906  16.729   6.255   3.751
  243DOPC   C1B 2907  16.512   5.694   5.125
  243DOPC   D2B 2908  16.836   5.732   4.739
  243DOPC   C3B 2909  16.658   5.803   4.314
  243DOPC   C4B 2910  16.501   5.791   3.844
  244DOPC   NC3 2911   4.265   9.063   5.880
  244DOPC   PO4 2912   4.568   8.845   5.727
  244DOPC   GL1 2913   4.311   8.879   5.322
  244DOPC   GL2 2914   4.351   9.158   5.414
  244DOPC   C1A 2915   4.253   8.938   4.860
  244DOPC   D2A 2916   4.067   8.928   4.378
  244DOPC   C3A 2917   4.139   8.916   3.912
  244DOPC   C4A 2918   4.052   8.802   3.435
  244DOPC   C1B 2919   4.564   9.315   5.059
  244DOPC   D2B 2920   4.575   9.254   4.556
  244DOPC   C3B 2921   4.562   8.859   4.290
  244DOPC   C4B 2922   4.547   8.600   3.873
  245DOPC   NC3 2923   8.279   1.129   6.022
  245DOPC   PO4 2924   8.299   1.332   5.676
  245DOPC   GL1 2925   8.244   1.098   5.368
  245DOPC   GL2 2926   7.947   1.157   5.340
  245DOPC   C1A 2927   8.497   1.175   4.994
  245DOPC   D2A 2928   8.741   1.241   4.554
  245DOPC   C3A 2929   8.549   1.176   4.112
  245DOPC   C4A 2930   8.326   1.195   3.665
  245DOPC   C1B 2931   8.022   1.052   4.937
  245DOPC   D2B 2932   8.224   1.028   4.486
  245DOPC   C3B 2933   8.015   1.017   4.063
  245DOPC   C4B 2934   7.673   0.962   3.709
  246DOPC   NC3 2935   0.153   8.750   5.924
  246DOPC   PO4 2936   0.338   8.514   5.661
  246DOPC   GL1 2937   0.068   8.656   5.352
  246DOPC   GL2 2938   0.297   8.871   5.313
  246DOPC   C1A 2939   0.135   8.633   4.918
  246DOPC   D2A 2940   0.300   8.720   4.458
  246DOPC   C3A 2941   0.149   8.962   4.082
  246DOPC   C4A 2942   0.020   9.253   3.714
  246DOPC   C1B 2943   0.585   8.891   4.966
  246DOPC   D2B 2944   0.880   9.071   4.600
  246DOPC   C3B 2945   0.767   9.042   4.142
  246DOPC   C4B 2946   0.529   8.947   3.715
  247DOPC   NC3 2947  18.894   9.589   6.040
  247DOPC   PO4 2948  19.215   9.389   5.906
  247DOPC   GL1 2949  19.220   9.586   5.574
  247DOPC   GL2 2950  18.907   9.589   5.549
  247DOPC   C1A 2951  19.301   9.576   5.161
  247DOPC   D2A 2952  19.240   9.628   4.662
  247DOPC   C3A 2953  19.087   9.782   4.250
  247DOPC   C4A 2954  18.930   9.795   3.769
  247DOPC   C1B 2955  18.791   9.668   5.125
  247DOPC   D2B 2956  18.722   9.822   4.637
  247DOPC   C3B 2957  18.592   9.742   4.172
  247DOPC   C4B 2958  18.428   9.708   3.692
  248DOPC   NC3 2959  15.401   6.003   5.760
  248DOPC   PO4 2960  15.767   6.109   5.635
  248DOPC   GL1 2961  15.929   5.787   5.378
  248DOPC   GL2 2962  15.615   5.760   5.327
  248DOPC   C1A 2963  15.970   5.857   4.934
  248DOPC   D2A 2964  15.860   5.776   4.441
  248DOPC   C3A 2965  16.017   5.901   4.013
  248DOPC   C4A 2966  16.220   6.187   3.664
  248DOPC   C1B 2967  15.511   6.069   4.999
  248DOPC   D2B 2968  15.596   6.218   4.519
  248DOPC   C3B 2969  15.521   5.989   4.106
  248DOPC   C4B 2970  15.585   5.580   3.811
  249DOPC   NC3 2971   7.345   4.190   5.951
  249DOPC   PO4 2972   7.702   4.046   5.826
  249DOPC   GL1 2973   7.583   4.045   5.438
  249DOPC   GL2 2974   7.356   4.257   5.460
  249DOPC   C1A 2975   7.392   3.923   5.081
  249DOPC   D2A 2976   7.212   4.037   4.623
  249DOPC   C3A 2977   7.070   4.010   4.176
  249DOPC   C4A 2978   7.323   4.048   3.750
  249DOPC   C1B 2979   7.194   4.403   5.035
  249DOPC   D2B 2980   7.060   4.534   4.547
  249DOPC   C3B 2981   7.185   4.508   4.082
  249DOPC   C4B 2982   7.305   4.559   3.592
  250DOPC   NC3 2983   8.589   2.500   5.894
  250DOPC   PO4 2984   8.318   2.520   5.589
  250DOPC   GL1 2985   8.294   2.388   5.155
  250DOPC   GL2 2986   8.551   2.564   5.136
  250DOPC   C1A 2987   8.234   2.443   4.714
  250DOPC   D2A 2988   8.291   2.747   4.306
  250DOPC   C3A 2989   8.455   2.562   3.898
  250DOPC   C4A 2990   8.769   2.436   3.519
  250DOPC   C1B 2991   8.656   2.707   4.715
  250DOPC   D2B 2992   8.808   2.764   4.237
  250DOPC   C3B 2993   8.841   2.866   3.775
  250DOPC   C4B 2994   8.858   2.930   3.283
  251DOPC   NC3 2995   2.043   2.813   5.965
  251DOPC   PO4 2996   2.030   2.426   5.825
  251DOPC   GL1 2997   2.178   2.513   5.445
  251DOPC   GL2 2998   2.164   2.828   5.481
  251DOPC   C1A 2999   1.958   2.499   5.068
  251DOPC   D2A 3000   1.866   2.675   4.617
  251DOPC   C3A 3001   1.846   2.572   4.168
  251DOPC   C4A 3002   1.979   2.429   3.726
  251DOPC   C1B 3003   2.050   3.005   5.080
  251DOPC   D2B 3004   2.053   3.161   4.600
  251DOPC   C3B 3005   1.936   3.097   4.155
  251DOPC   C4B 3006   1.796   2.916   3.717
  252DOPC   NC3 3007   7.452   9.385   5.856
  252DOPC   PO4 3008   7.737   9.119   5.951
  252DOPC   GL1 3009   7.824   9.071   5.502
  252DOPC   GL2 3010   7.519   9.061   5.502
  252DOPC   C1A 3011   7.871   9.288   5.113
  252DOPC   D2A 3012   7.911   9.424   4.624
  252DOPC   C3A 3013   7.701   9.386   4.197
  252DOPC   C4A 3014   7.431   9.370   3.782
  252DOPC   C1B 3015   7.374   9.222   5.109
  252DOPC   D2B 3016   7.378   9.368   4.623
  252DOPC   C3B 3017   7.163   9.488   4.205
  252DOPC   C4B 3018   7.051   9.705   3.759
  253DOPC   NC3 3019  18.159   7.368   5.830
  253DOPC   PO4 3020  18.419   7.144   5.631
  253DOPC   GL1 3021  18.285   7.370   5.275
  253DOPC   GL2 3022  18.006   7.361   5.369
  253DOPC   C1A 3023  18.248   7.206   4.860
  253DOPC   D2A 3024  18.300   6.874   4.474
  253DOPC   C3A 3025  18.294   7.043   4.023
  253DOPC   C4A 3026  18.244   7.480   3.780
  253DOPC   C1B 3027  17.739   7.237   5.025
  253DOPC   D2B 3028  17.709   7.023   4.557
  253DOPC   C3B 3029  17.759   7.086   4.080
  253DOPC   C4B 3030  17.894   7.165   3.603
  254DOPC   NC3 3031   4.285   1.742   5.578
  254DOPC   PO4 3032   4.585   1.491   5.470
  254DOPC   GL1 3033   4.648   1.455   5.039
  254DOPC   GL2 3034   4.341   1.515   5.044
  254DOPC   C1A 3035   4.589   1.453   4.600
  254DOPC   D2A 3036   4.255   1.418   4.211
  254DOPC   C3A 3037   4.063   1.396   3.769
  254DOPC   C4A 3038   3.900   1.177   3.342
  254DOPC   C1B 3039   4.109   1.305   4.715
  254DOPC   D2B 3040   3.907   1.040   4.334
  254DOPC   C3B 3041   4.048   0.914   3.896
  254DOPC   C4B 3042   4.336   0.870   3.473
  255DOPC   NC3 3043  19.486   6.504   5.814
  255DOPC   PO4 3044  19.621   6.302   5.504
  255DOPC   GL1 3045  19.260   6.517   5.342
  255DOPC   GL2 3046  19.408   6.785   5.432
  255DOPC   C1A 3047  19.258   6.525   4.890
  255DOPC   D2A 3048  19.516   6.621   4.463
  255DOPC   C3A 3049  19.551   6.554   3.993
  255DOPC   C4A 3050  19.576   6.424   3.518
  255DOPC   C1B 3051  19.564   6.956   5.040
  255DOPC   D2B 3052  19.777   7.070   4.591
  255DOPC   C3B 3053  19.662   7.036   4.134
  255DOPC   C4B 3054  19.557   6.978   3.653
  256DOPC   NC3 3055  15.102   1.447   5.943
  256DOPC   PO4 3056  14.888   1.664   5.672
  256DOPC   GL1 3057  15.088   1.438   5.402
  256DOPC   GL2 3058  15.021   1.169   5.542
  256DOPC   C1A 3059  14.939   1.448   4.987
  256DOPC   D2A 3060  14.739   1.392   4.532
  256DOPC   C3A 3061  14.995   1.359   4.139
  256DOPC   C4A 3062  15.267   1.346   3.716
  256DOPC   C1B 3063  14.820   0.962   5.197
  256DOPC   D2B 3064  14.628   0.896   4.737
  256DOPC   C3B 3065  14.734   0.895   4.273
  256DOPC   C4B 3066  14.796   1.033   3.795
  257DOPC   NC3 3067  17.597   4.131   5.881
  257DOPC   PO4 3068  17.954   4.019   5.778
  257DOPC   GL1 3069  17.958   3.752   5.432
  257DOPC   GL2 3070  18.239   3.879   5.405
  257DOPC   C1A 3071  17.744   3.780   5.046
  257DOPC   D2A 3072  17.693   3.940   4.571
  257DOPC   C3A 3073  17.761   3.995   4.098
  257DOPC   C4A 3074  17.916   4.207   3.666
  257DOPC   C1B 3075  18.196   4.142   5.037
  257DOPC   D2B 3076  18.194   4.422   4.610
  257DOPC   C3B 3077  18.200   4.377   4.131
  257DOPC   C4B 3078  18.429   4.386   3.684
  258DOPC   NC3 3079   4.468   8.370   5.952
  258DOPC   PO4 3080   4.137   8.578   5.854
  258DOPC   GL1 3081   4.266   8.480   5.496
  258DOPC   GL2 3082   4.557   8.449   5.475
  258DOPC   C1A 3083   4.104   8.500   5.085
  258DOPC   D2A 3084   4.252   8.499   4.602
  258DOPC   C3A 3085   4.147   8.446   4.148
  258DOPC   C4A 3086   4.133   8.345   3.656
  258DOPC   C1B 3087   4.605   8.399   5.019
  258DOPC   D2B 3088   4.744   8.313   4.527
  258DOPC   C3B 3089   4.593   8.135   4.104
  258DOPC   C4B 3090   4.443   7.911   3.683
  259DOPC   NC3 3091  10.714   8.853   6.073
  259DOPC   PO4 3092  10.923   8.878   5.725
  259DOPC   GL1 3093  10.961   8.761   5.264
  259DOPC   GL2 3094  11.268   8.819   5.339
  259DOPC   C1A 3095  11.012   8.859   4.801
  259DOPC   D2A 3096  11.102   9.007   4.331
  259DOPC   C3A 3097  10.967   8.941   3.889
  259DOPC   C4A 3098  10.956   8.853   3.399
  259DOPC   C1B 3099  11.477   9.001   4.974
  259DOPC   D2B 3100  11.656   9.094   4.503
  259DOPC   C3B 3101  11.539   8.926   4.070
  259DOPC   C4B 3102  11.416   8.740   3.633
  260DOPC   NC3 3103  19.727   0.134   5.968
  260DOPC   PO4 3104  19.759   0.522   5.855
  260DOPC   GL1 3105  19.962   0.489   5.478
  260DOPC   GL2 3106   0.023   0.796   5.460
  260DOPC   C1A 3107  19.802   0.311   5.091
  260DOPC   D2A 3108  19.498   0.301   4.674
  260DOPC   C3A 3109  19.444   0.363   4.211
  260DOPC   C4A 3110  19.249   0.391   3.757
  260DOPC   C1B 3111   0.046   0.771   5.016
  260DOPC   D2B 3112  19.953   0.501   4.600
  260DOPC   C3B 3113  19.920   0.620   4.138
  260DOPC   C4B 3114  19.791   0.786   3.691
  261DOPC   NC3 3115  18.102   2.941   5.847
  261DOPC   PO4 3116  17.731   3.030   5.713
  261DOPC   GL1 3117  17.653   2.801   5.337
  261DOPC   GL2 3118  17.972   2.754   5.344
  261DOPC   C1A 3119  17.755   2.837   4.904
  261DOPC   D2A 3120  17.996   2.878   4.461
  261DOPC   C3A 3121  17.888   2.986   4.005
  261DOPC   C4A 3122  17.865   3.143   3.523
  261DOPC   C1B 3123  18.191   2.600   4.965
  261DOPC   D2B 3124  18.400   2.399   4.540
  261DOPC   C3B 3125  18.333   2.641   4.125
  261DOPC   C4B 3126  18.278   2.885   3.685
  262DOPC   NC3 3127   7.308   8.843   5.894
  262DOPC   PO4 3128   7.071   9.080   5.675
  262DOPC   GL1 3129   7.118   8.839   5.280
  262DOPC   GL2 3130   7.331   8.674   5.446
  262DOPC   C1A 3131   7.218   8.850   4.806
  262DOPC   D2A 3132   7.351   8.967   4.315
  262DOPC   C3A 3133   7.041   9.030   3.960
  262DOPC   C4A 3134   6.688   9.347   3.800
  262DOPC   C1B 3135   7.621   8.750   5.118
  262DOPC   D2B 3136   7.709   8.695   4.606
  262DOPC   C3B 3137   7.541   8.529   4.178
  262DOPC   C4B 3138   7.460   8.359   3.708
  263DOPC   NC3 3139  19.273   4.941   5.808
  263DOPC   PO4 3140  18.951   4.711   5.762
  263DOPC   GL1 3141  19.003   4.821   5.348
  263DOPC   GL2 3142  18.940   5.115   5.424
  263DOPC   C1A 3143  18.932   4.825   4.909
  263DOPC   D2A 3144  18.997   4.941   4.422
  263DOPC   C3A 3145  19.035   4.852   3.956
  263DOPC   C4A 3146  18.881   4.650   3.531
  263DOPC   C1B 3147  18.678   5.251   5.068
  263DOPC   D2B 3148  18.595   5.261   4.563
  263DOPC   C3B 3149  18.787   5.341   4.128
  263DOPC   C4B 3150  19.136   5.406   3.765
  264DOPC   NC3 3151  19.694   1.020   5.717
  264DOPC   PO4 3152  19.804   1.409   5.744
  264DOPC   GL1 3153  19.468   1.371   5.480
  264DOPC   GL2 3154  19.510   1.640   5.352
  264DOPC   C1A 3155  19.614   1.081   5.171
  264DOPC   D2A 3156  19.656   0.902   4.706
  264DOPC   C3A 3157  19.523   0.907   4.249
  264DOPC   C4A 3158  19.303   0.901   3.786
  264DOPC   C1B 3159  19.587   1.555   4.912
  264DOPC   D2B 3160  19.745   1.394   4.452
  264DOPC   C3B 3161  19.652   1.511   4.003
  264DOPC   C4B 3162  19.549   1.590   3.530
  265DOPC   NC3 3163  14.333   1.246   6.073
  265DOPC   PO4 3164  14.640   1.225   5.820
  265DOPC   GL1 3165  14.636   1.369   5.395
  265DOPC   GL2 3166  14.444   1.590   5.463
  265DOPC   C1A 3167  14.450   1.291   5.005
  265DOPC   D2A 3168  14.244   1.288   4.555
  265DOPC   C3A 3169  14.403   1.246   4.115
  265DOPC   C4A 3170  14.285   1.085   3.669
  265DOPC   C1B 3171  14.107   1.651   5.146
  265DOPC   D2B 3172  13.922   1.664   4.670
  265DOPC   C3B 3173  14.086   1.641   4.202
  265DOPC   C4B 3174  14.313   1.637   3.743
  266DOPC   NC3 3175   1.223   8.017   5.852
  266DOPC   PO4 3176   1.449   7.859   5.561
  266DOPC   GL1 3177   1.114   7.999   5.349
  266DOPC   GL2 3178   1.195   8.294   5.478
  266DOPC   C1A 3179   1.036   8.071   4.904
  266DOPC   D2A 3180   0.898   8.082   4.418
  266DOPC   C3A 3181   1.109   8.068   3.993
  266DOPC   C4A 3182   1.566   8.029   3.779
  266DOPC   C1B 3183   1.443   8.387   5.128
  266DOPC   D2B 3184   1.480   8.462   4.626
  266DOPC   C3B 3185   1.416   8.449   4.153
  266DOPC   C4B 3186   1.358   8.477   3.655
  267DOPC   NC3 3187   3.515   8.516   6.172
  267DOPC   PO4 3188   3.561   8.745   5.839
  267DOPC   GL1 3189   3.902   8.878   5.562
  267DOPC   GL2 3190   3.842   8.581   5.479
  267DOPC   C1A 3191   3.816   8.921   5.138
  267DOPC   D2A 3192   3.734   8.692   4.690
  267DOPC   C3A 3193   3.502   8.456   4.333
  267DOPC   C4A 3194   3.217   8.258   3.956
  267DOPC   C1B 3195   3.561   8.476   5.136
  267DOPC   D2B 3196   3.247   8.318   4.765
  267DOPC   C3B 3197   3.209   8.003   4.400
  267DOPC   C4B 3198   3.268   7.713   3.982
  268DOPC   NC3 3199   9.946   5.922   5.924
  268DOPC   PO4 3200  10.162   5.681   5.687
  268DOPC   GL1 3201  10.384   5.913   5.368
  268DOPC   GL2 3202  10.642   5.832   5.528
  268DOPC   C1A 3203  10.362   5.906   4.898
  268DOPC   D2A 3204  10.395   5.909   4.384
  268DOPC   C3A 3205  10.339   5.851   3.905
  268DOPC   C4A 3206  10.279   5.672   3.429
  268DOPC   C1B 3207  11.014   5.883   5.270
  268DOPC   D2B 3208  11.073   5.887   4.768
  268DOPC   C3B 3209  10.941   5.892   4.324
  268DOPC   C4B 3210  10.849   5.839   3.845
  269DOPC   NC3 3211  16.488   9.015   5.868
  269DOPC   PO4 3212  16.627   9.347   5.699
  269DOPC   GL1 3213  16.431   9.137   5.396
  269DOPC   GL2 3214  16.652   8.918   5.427
  269DOPC   C1A 3215  16.286   9.118   4.982
  269DOPC   D2A 3216  16.159   9.208   4.496
  269DOPC   C3A 3217  16.182   8.963   4.083
  269DOPC   C4A 3218  16.381   8.798   3.660
  269DOPC   C1B 3219  16.620   8.713   5.033
  269DOPC   D2B 3220  16.522   8.595   4.552
  269DOPC   C3B 3221  16.658   8.727   4.110
  269DOPC   C4B 3222  16.863   8.962   3.710
  270DOPC   NC3 3223  11.151   0.040   6.055
  270DOPC   PO4 3224  11.190   0.086   5.660
  270DOPC   GL1 3225  10.896   0.163   5.317
  270DOPC   GL2 3226  10.912   9.851   5.338
  270DOPC   C1A 3227  10.961   0.141   4.869
  270DOPC   D2A 3228  11.042   9.902   4.432
  270DOPC   C3A 3229  11.386   9.913   4.097
  270DOPC   C4A 3230  11.722   9.815   3.736
  270DOPC   C1B 3231  11.034   9.656   4.941
  270DOPC   D2B 3232  11.279   9.451   4.543
  270DOPC   C3B 3233  11.086   9.492   4.113
  270DOPC   C4B 3234  10.820   9.564   3.695
  271DOPC   NC3 3235  13.389   2.798   5.798
  271DOPC   PO4 3236  13.777   2.848   5.729
  271DOPC   GL1 3237  13.671   2.797   5.383
  271DOPC   GL2 3238  13.399   2.825   5.325
  271DOPC   C1A 3239  13.877   2.937   5.043
  271DOPC   D2A 3240  14.061   3.001   4.595
  271DOPC   C3A 3241  13.860   3.004   4.165
  271DOPC   C4A 3242  13.721   2.810   3.739
  271DOPC   C1B 3243  13.412   2.869   4.874
  271DOPC   D2B 3244  13.394   2.858   4.380
  271DOPC   C3B 3245  13.254   2.720   3.950
  271DOPC   C4B 3246  13.129   2.585   3.480
  272DOPC   NC3 3247  17.110   7.386   6.061
  272DOPC   PO4 3248  17.347   7.615   5.828
  272DOPC   GL1 3249  17.253   7.388   5.524
  272DOPC   GL2 3250  17.188   7.117   5.625
  272DOPC   C1A 3251  17.173   7.503   5.098
  272DOPC   D2A 3252  17.090   7.684   4.636
  272DOPC   C3A 3253  17.083   7.609   4.168
  272DOPC   C4A 3254  16.977   7.512   3.687
  272DOPC   C1B 3255  17.210   7.006   5.191
  272DOPC   D2B 3256  17.180   7.114   4.703
  272DOPC   C3B 3257  17.134   7.063   4.238
  272DOPC   C4B 3258  17.136   7.017   3.737
  273DOPC   NC3 3259  13.208   7.067   5.903
  273DOPC   PO4 3260  13.176   6.890   5.549
  273DOPC   GL1 3261  13.378   6.878   5.162
  273DOPC   GL2 3262  13.134   7.058   5.099
  273DOPC   C1A 3263  13.514   6.963   4.756
  273DOPC   D2A 3264  13.488   7.235   4.335
  273DOPC   C3A 3265  13.140   7.232   4.009
  273DOPC   C4A 3266  12.753   6.991   3.808
  273DOPC   C1B 3267  12.781   6.972   4.826
  273DOPC   D2B 3268  12.392   7.128   4.521
  273DOPC   C3B 3269  12.446   7.305   4.081
  273DOPC   C4B 3270  12.610   7.467   3.643
  274DOPC   NC3 3271   6.653   0.507   5.843
  274DOPC   PO4 3272   7.026   0.661   5.792
  274DOPC   GL1 3273   6.943   0.856   5.389
  274DOPC   GL2 3274   6.671   0.696   5.395
  274DOPC   C1A 3275   6.944   0.877   4.942
  274DOPC   D2A 3276   6.814   0.703   4.489
  274DOPC   C3A 3277   6.831   0.718   4.019
  274DOPC   C4A 3278   6.858   0.670   3.528
  274DOPC   C1B 3279   6.590   0.508   4.988
  274DOPC   D2B 3280   6.562   0.220   4.571
  274DOPC   C3B 3281   6.512   0.317   4.108
  274DOPC   C4B 3282   6.494   0.285   3.605
  275DOPC   NC3 3283  15.346   7.151   5.901
  275DOPC   PO4 3284  15.392   7.507   5.708
  275DOPC   GL1 3285  15.299   7.456   5.304
  275DOPC   GL2 3286  15.098   7.201   5.395
  275DOPC   C1A 3287  15.340   7.538   4.850
  275DOPC   D2A 3288  15.305   7.555   4.336
  275DOPC   C3A 3289  15.309   7.737   3.891
  275DOPC   C4A 3290  15.450   7.827   3.415
  275DOPC   C1B 3291  14.875   7.072   5.007
  275DOPC   D2B 3292  14.656   7.072   4.551
  275DOPC   C3B 3293  14.876   7.192   4.160
  275DOPC   C4B 3294  15.156   7.280   3.770
  276DOPC   NC3 3295  10.432   0.667   5.743
  276DOPC   PO4 3296  10.163   0.374   5.708
  276DOPC   GL1 3297  10.234   0.559   5.322
  276DOPC   GL2 3298  10.498   0.400   5.337
  276DOPC   C1A 3299  10.042   0.521   4.925
  276DOPC   D2A 3300  10.119   0.153   4.578
  276DOPC   C3A 3301  10.017   0.349   4.172
  276DOPC   C4A 3302   9.830   0.681   3.862
  276DOPC   C1B 3303  10.497   0.303   4.906
  276DOPC   D2B 3304  10.627   0.208   4.439
  276DOPC   C3B 3305  10.495   0.240   3.994
  276DOPC   C4B 3306  10.135   0.269   3.656
  277DOPC   NC3 3307   4.425   6.080   5.785
  277DOPC   PO4 3308   4.079   5.883   5.724
  277DOPC   GL1 3309   4.200   5.973   5.343
  277DOPC   GL2 3310   4.488   5.915   5.360
  277DOPC   C1A 3311   4.123   5.851   4.939
  277DOPC   D2A 3312   4.115   5.683   4.472
  277DOPC   C3A 3313   4.012   5.936   4.096
  277DOPC   C4A 3314   4.117   6.253   3.728
  277DOPC   C1B 3315   4.631   5.751   4.978
  277DOPC   D2B 3316   4.762   5.670   4.518
  277DOPC   C3B 3317   4.516   5.745   4.125
  277DOPC   C4B 3318   4.282   5.769   3.687
  278DOPC   NC3 3319  19.869   8.325   5.719
  278DOPC   PO4 3320  19.686   8.681   5.750
  278DOPC   GL1 3321  19.459   8.610   5.430
  278DOPC   GL2 3322  19.374   8.324   5.492
  278DOPC   C1A 3323  19.669   8.506   5.055
  278DOPC   D2A 3324  19.805   8.416   4.573
  278DOPC   C3A 3325  19.940   8.499   4.128
  278DOPC   C4A 3326   0.073   8.645   3.661
  278DOPC   C1B 3327  19.338   8.087   5.103
  278DOPC   D2B 3328  19.188   8.031   4.613
  278DOPC   C3B 3329  19.409   8.224   4.235
  278DOPC   C4B 3330  19.590   8.355   3.778
  279DOPC   NC3 3331  15.300   5.286   5.607
  279DOPC   PO4 3332  15.386   4.929   5.778
  279DOPC   GL1 3333  15.157   4.781   5.452
  279DOPC   GL2 3334  14.929   4.983   5.568
  279DOPC   C1A 3335  15.188   4.887   5.013
  279DOPC   D2A 3336  15.383   5.086   4.575
  279DOPC   C3A 3337  15.360   5.019   4.106
  279DOPC   C4A 3338  15.437   4.686   3.756
  279DOPC   C1B 3339  14.895   5.278   5.233
  279DOPC   D2B 3340  14.994   5.371   4.750
  279DOPC   C3B 3341  14.923   5.214   4.301
  279DOPC   C4B 3342  14.893   4.974   3.845
  280DOPC   NC3 3343   4.188   9.588   5.947
  280DOPC   PO4 3344   4.382   9.863   5.734
  280DOPC   GL1 3345   4.223   9.718   5.404
  280DOPC   GL2 3346   4.074   9.475   5.511
  280DOPC   C1A 3347   4.312   9.789   4.973
  280DOPC   D2A 3348   4.367   9.791   4.475
  280DOPC   C3A 3349   4.264   9.903   4.030
  280DOPC   C4A 3350   4.175   9.991   3.541
  280DOPC   C1B 3351   4.062   9.361   5.095
  280DOPC   D2B 3352   4.068   9.375   4.592
  280DOPC   C3B 3353   4.254   9.388   4.144
  280DOPC   C4B 3354   4.407   9.559   3.691
  281DOPC   NC3 3355   8.766   1.194   5.894
  281DOPC   PO4 3356   8.772   1.557   5.725
  281DOPC   GL1 3357   8.648   1.420   5.352
  281DOPC   GL2 3358   8.681   1.130   5.430
  281DOPC   C1A 3359   8.974   1.369   5.043
  281DOPC   D2A 3360   9.293   1.197   4.698
  281DOPC   C3A 3361   9.255   1.337   4.254
  281DOPC   C4A 3362   9.242   1.609   3.835
  281DOPC   C1B 3363   8.900   0.876   5.123
  281DOPC   D2B 3364   9.061   0.754   4.665
  281DOPC   C3B 3365   8.987   0.903   4.230
  281DOPC   C4B 3366   9.053   0.936   3.745
  282DOPC   NC3 3367   6.576   8.494   5.870
  282DOPC   PO4 3368   6.908   8.587   5.681
  282DOPC   GL1 3369   6.668   8.716   5.383
  282DOPC   GL2 3370   6.404   8.769   5.528
  282DOPC   C1A 3371   6.547   8.633   4.967
  282DOPC   D2A 3372   6.545   8.425   4.511
  282DOPC   C3A 3373   6.557   8.651   4.098
  282DOPC   C4A 3374   6.534   8.889   3.667
  282DOPC   C1B 3375   6.161   8.907   5.169
  282DOPC   D2B 3376   6.136   8.859   4.656
  282DOPC   C3B 3377   6.090   8.885   4.179
  282DOPC   C4B 3378   6.043   9.011   3.695
  283DOPC   NC3 3379  10.719   8.406   5.800
  283DOPC   PO4 3380  10.382   8.222   5.708
  283DOPC   GL1 3381  10.559   8.393   5.338
  283DOPC   GL2 3382  10.284   8.480   5.228
  283DOPC   C1A 3383  10.796   8.428   4.970
  283DOPC   D2A 3384  10.925   8.422   4.490
  283DOPC   C3A 3385  10.865   8.125   4.121
  283DOPC   C4A 3386  10.771   7.948   3.660
  283DOPC   C1B 3387  10.332   8.409   4.773
  283DOPC   D2B 3388  10.450   8.388   4.280
  283DOPC   C3B 3389  10.343   8.308   3.828
  283DOPC   C4B 3390  10.214   8.174   3.368
  284DOPC   NC3 3391   2.050   3.534   5.559
  284DOPC   PO4 3392   1.709   3.714   5.659
  284DOPC   GL1 3393   1.500   3.700   5.306
  284DOPC   GL2 3394   1.697   3.445   5.245
  284DOPC   C1A 3395   1.578   3.762   4.901
  284DOPC   D2A 3396   1.805   3.637   4.485
  284DOPC   C3A 3397   1.663   3.822   4.089
  284DOPC   C4A 3398   1.849   4.042   3.708
  284DOPC   C1B 3399   2.052   3.509   4.970
  284DOPC   D2B 3400   2.306   3.589   4.523
  284DOPC   C3B 3401   2.125   3.578   4.077
  284DOPC   C4B 3402   1.765   3.444   3.756
  285DOPC   NC3 3403  18.573   3.490   5.833
  285DOPC   PO4 3404  18.550   3.116   5.702
  285DOPC   GL1 3405  18.548   3.136   5.285
  285DOPC   GL2 3406  18.664   3.438   5.286
  285DOPC   C1A 3407  18.283   3.114   4.935
  285DOPC   D2A 3408  18.430   3.416   4.562
  285DOPC   C3A 3409  18.676   3.531   4.178
  285DOPC   C4A 3410  18.749   3.417   3.699
  285DOPC   C1B 3411  18.758   3.685   4.899
  285DOPC   D2B 3412  19.012   3.895   4.498
  285DOPC   C3B 3413  19.094   3.791   4.024
  285DOPC   C4B 3414  19.260   3.440   3.697
  286DOPC   NC3 3415   2.135   1.191   6.178
  286DOPC   PO4 3416   2.023   1.549   6.026
  286DOPC   GL1 3417   1.976   1.477   5.603
  286DOPC   GL2 3418   2.076   1.177   5.658
  286DOPC   C1A 3419   2.048   1.628   5.180
  286DOPC   D2A 3420   2.110   1.764   4.682
  286DOPC   C3A 3421   1.996   1.711   4.216
  286DOPC   C4A 3422   1.782   1.620   3.773
  286DOPC   C1B 3423   2.225   1.149   5.237
  286DOPC   D2B 3424   2.143   1.250   4.746
  286DOPC   C3B 3425   2.209   1.203   4.278
  286DOPC   C4B 3426   2.399   1.035   3.854
  287DOPC   NC3 3427   4.592   3.900   6.010
  287DOPC   PO4 3428   4.428   3.800   5.653
  287DOPC   GL1 3429   4.614   3.887   5.269
  287DOPC   GL2 3430   4.734   4.151   5.377
  287DOPC   C1A 3431   4.371   3.924   4.875
  287DOPC   D2A 3432   4.073   3.976   4.463
  287DOPC   C3A 3433   4.101   4.000   3.996
  287DOPC   C4A 3434   4.134   3.981   3.510
  287DOPC   C1B 3435   4.499   4.383   5.075
  287DOPC   D2B 3436   4.132   4.405   4.732
  287DOPC   C3B 3437   4.149   4.455   4.258
  287DOPC   C4B 3438   4.193   4.481   3.756
  288DOPC   NC3 3439  11.949   7.278   6.096
  288DOPC   PO4 3440  11.786   7.648   6.040
  288DOPC   GL1 3441  11.751   7.597   5.605
  288DOPC   GL2 3442  11.910   7.323   5.619
  288DOPC   C1A 3443  11.751   7.689   5.151
  288DOPC   D2A 3444  11.671   7.769   4.650
  288DOPC   C3A 3445  11.814   7.771   4.194
  288DOPC   C4A 3446  12.090   7.624   3.799
  288DOPC   C1B 3447  11.994   7.236   5.195
  288DOPC   D2B 3448  11.940   7.317   4.694
  288DOPC   C3B 3449  11.956   7.272   4.219
  288DOPC   C4B 3450  12.072   7.095   3.761
  289DOPC   NC3 3451  17.603   2.148   5.921
  289DOPC   PO4 3452  17.213   2.144   5.950
  289DOPC   GL1 3453  17.122   2.065   5.544
  289DOPC   GL2 3454  17.363   1.855   5.594
  289DOPC   C1A 3455  17.196   2.138   5.102
  289DOPC   D2A 3456  17.378   2.198   4.617
  289DOPC   C3A 3457  17.341   2.239   4.131
  289DOPC   C4A 3458  17.268   2.300   3.626
  289DOPC   C1B 3459  17.609   1.862   5.235
  289DOPC   D2B 3460  17.772   1.897   4.777
  289DOPC   C3B 3461  17.747   1.793   4.312
  289DOPC   C4B 3462  17.764   1.566   3.876
  290DOPC   NC3 3463  16.127   1.052   5.720
  290DOPC   PO4 3464  16.380   0.761   5.609
  290DOPC   GL1 3465  16.282   0.758   5.187
  290DOPC   GL2 3466  16.028   0.904   5.256
  290DOPC   C1A 3467  16.222   0.675   4.748
  290DOPC   D2A 3468  16.179   0.594   4.261
  290DOPC   C3A 3469  16.117   0.942   3.948
  290DOPC   C4A 3470  16.142   1.354   3.671
  290DOPC   C1B 3471  15.832   0.969   4.850
  290DOPC   D2B 3472  15.783   0.985   4.344
  290DOPC   C3B 3473  15.721   1.280   3.969
  290DOPC   C4B 3474  15.717   1.694   3.675
  291DOPC   NC3 3475   0.205   1.091   5.806
  291DOPC   PO4 3476   0.344   1.427   5.634
  291DOPC   GL1 3477   0.057   1.303   5.318
  291DOPC   GL2 3478   0.303   1.107   5.245
  291DOPC   C1A 3479   0.004   1.266   4.883
  291DOPC   D2A 3480   0.088   0.984   4.469
  291DOPC   C3A 3481   0.018   1.136   4.034
  291DOPC   C4A 3482   0.029   1.387   3.602
  291DOPC   C1B 3483   0.473   1.073   4.806
  291DOPC   D2B 3484   0.575   1.053   4.292
  291DOPC   C3B 3485   0.771   1.012   3.844
  291DOPC   C4B 3486   0.761   0.900   3.348
  292DOPC   NC3 3487  15.840   2.246   5.916
  292DOPC   PO4 3488  15.573   2.419   5.670
  292DOPC   GL1 3489  15.682   2.670   5.338
  292DOPC   GL2 3490  15.996   2.624   5.420
  292DOPC   C1A 3491  15.618   2.518   4.923
  292DOPC   D2A 3492  15.440   2.270   4.511
  292DOPC   C3A 3493  15.527   2.252   4.039
  292DOPC   C4A 3494  15.843   2.229   3.652
  292DOPC   C1B 3495  16.096   2.389   5.048
  292DOPC   D2B 3496  15.952   2.258   4.569
  292DOPC   C3B 3497  16.069   2.126   4.120
  292DOPC   C4B 3498  16.211   1.876   3.692
  293DOPC   NC3 3499   1.257   9.396   5.845
  293DOPC   PO4 3500   1.612   9.449   5.659
  293DOPC   GL1 3501   1.444   9.626   5.303
  293DOPC   GL2 3502   1.177   9.482   5.370
  293DOPC   C1A 3503   1.433   9.578   4.863
  293DOPC   D2A 3504   1.233   9.427   4.430
  293DOPC   C3A 3505   1.258   9.423   3.961
  293DOPC   C4A 3506   1.265   9.387   3.459
  293DOPC   C1B 3507   0.930   9.454   4.990
  293DOPC   D2B 3508   0.751   9.570   4.531
  293DOPC   C3B 3509   0.858   9.735   4.093
  293DOPC   C4B 3510   1.118   9.840   3.666
  294DOPC   NC3 3511  12.071   1.116   6.071
  294DOPC   PO4 3512  12.300   1.389   5.882
  294DOPC   GL1 3513  12.173   1.335   5.490
  294DOPC   GL2 3514  11.941   1.157   5.549
  294DOPC   C1A 3515  12.246   1.346   5.055
  294DOPC   D2A 3516  12.293   1.367   4.547
  294DOPC   C3A 3517  11.936   1.481   4.244
  294DOPC   C4A 3518  11.684   1.582   3.817
  294DOPC   C1B 3519  11.812   1.075   5.128
  294DOPC   D2B 3520  11.920   1.048   4.635
  294DOPC   C3B 3521  11.768   1.009   4.195
  294DOPC   C4B 3522  12.007   1.183   3.798
  295DOPC   NC3 3523   6.297   8.056   5.842
  295DOPC   PO4 3524   6.130   8.378   5.652
  295DOPC   GL1 3525   6.382   8.357   5.308
  295DOPC   GL2 3526   6.618   8.244   5.473
  295DOPC   C1A 3527   6.431   8.130   4.917
  295DOPC   D2A 3528   6.447   7.905   4.477
  295DOPC   C3A 3529   6.364   8.167   4.089
  295DOPC   C4A 3530   6.160   8.506   3.780
  295DOPC   C1B 3531   6.844   8.002   5.167
  295DOPC   D2B 3532   6.932   7.903   4.681
  295DOPC   C3B 3533   6.876   8.066   4.237
  295DOPC   C4B 3534   6.724   8.018   3.760
  296DOPC   NC3 3535  16.462   6.495   5.574
  296DOPC   PO4 3536  16.833   6.612   5.665
  296DOPC   GL1 3537  16.800   6.909   5.370
  296DOPC   GL2 3538  16.509   6.958   5.453
  296DOPC   C1A 3539  16.819   6.742   4.938
  296DOPC   D2A 3540  16.880   6.631   4.452
  296DOPC   C3A 3541  16.832   6.699   3.987
  296DOPC   C4A 3542  16.804   6.697   3.479
  296DOPC   C1B 3543  16.328   6.739   5.113
  296DOPC   D2B 3544  16.386   6.647   4.635
  296DOPC   C3B 3545  16.366   6.788   4.198
  296DOPC   C4B 3546  16.373   6.665   3.725
  297DOPC   NC3 3547  10.691   4.385   5.808
  297DOPC   PO4 3548  10.338   4.321   5.650
  297DOPC   GL1 3549  10.625   4.124   5.351
  297DOPC   GL2 3550  10.777   4.383   5.331
  297DOPC   C1A 3551  10.693   3.924   4.952
  297DOPC   D2A 3552  10.826   3.736   4.497
  297DOPC   C3A 3553  10.616   3.936   4.128
  297DOPC   C4A 3554  10.351   4.123   3.738
  297DOPC   C1B 3555  10.890   4.376   4.883
  297DOPC   D2B 3556  10.966   4.232   4.389
  297DOPC   C3B 3557  10.849   4.395   3.938
  297DOPC   C4B 3558  10.901   4.737   3.563
  298DOPC   NC3 3559   8.030   2.773   5.918
  298DOPC   PO4 3560   7.798   2.537   5.691
  298DOPC   GL1 3561   7.565   2.770   5.389
  298DOPC   GL2 3562   7.856   2.765   5.260
  298DOPC   C1A 3563   7.513   3.011   5.028
  298DOPC   D2A 3564   7.682   3.171   4.578
  298DOPC   C3A 3565   7.810   2.928   4.198
  298DOPC   C4A 3566   7.989   2.753   3.759
  298DOPC   C1B 3567   7.830   2.691   4.811
  298DOPC   D2B 3568   7.875   2.456   4.361
  298DOPC   C3B 3569   8.014   2.275   3.949
  298DOPC   C4B 3570   8.312   2.197   3.550
  299DOPC   NC3 3571   2.541   8.371   5.965
  299DOPC   PO4 3572   2.623   8.680   5.715
  299DOPC   GL1 3573   2.599   8.653   5.279
  299DOPC   GL2 3574   2.420   8.402   5.298
  299DOPC   C1A 3575   2.799   8.594   4.868
  299DOPC   D2A 3576   2.889   8.431   4.396
  299DOPC   C3A 3577   2.708   8.416   3.960
  299DOPC   C4A 3578   2.371   8.307   3.612
  299DOPC   C1B 3579   2.456   8.211   4.884
  299DOPC   D2B 3580   2.668   7.926   4.515
  299DOPC   C3B 3581   2.808   7.931   4.066
  299DOPC   C4B 3582   2.874   8.039   3.582
  300DOPC   NC3 3583   5.791   8.156   5.965
  300DOPC   PO4 3584   5.794   7.838   5.716
  300DOPC   GL1 3585   5.570   7.947   5.352
  300DOPC   GL2 3586   5.750   8.187   5.426
  300DOPC   C1A 3587   5.523   8.120   4.947
  300DOPC   D2A 3588   5.401   8.304   4.492
  300DOPC   C3A 3589   5.408   8.062   4.090
  300DOPC   C4A 3590   5.469   7.736   3.716
  300DOPC   C1B 3591   5.994   7.987   5.119
  300DOPC   D2B 3592   5.953   7.914   4.629
  300DOPC   C3B 3593   5.900   7.996   4.166
  300DOPC   C4B 3594   5.774   8.139   3.706
  301DOPC   NC3 3595   5.128   3.326   5.680
  301DOPC   PO4 3596   4.874   3.007   5.662
  301DOPC   GL1 3597   4.629   3.177   5.312
  301DOPC   GL2 3598   4.712   3.451   5.384
  301DOPC   C1A 3599   4.616   3.112   4.852
  301DOPC   D2A 3600   4.604   3.174   4.352
  301DOPC   C3A 3601   4.797   3.312   3.941
  301DOPC   C4A 3602   4.885   3.338   3.450
  301DOPC   C1B 3603   4.758   3.589   4.952
  301DOPC   D2B 3604   4.717   3.756   4.467
  301DOPC   C3B 3605   4.944   3.826   4.049
  301DOPC   C4B 3606   5.326   3.888   3.721
  302DOPC   NC3 3607   1.971   4.410   5.715
  302DOPC   PO4 3608   2.133   4.048   5.641
  302DOPC   GL1 3609   1.942   3.900   5.258
  302DOPC   GL2 3610   1.731   4.107   5.370
  302DOPC   C1A 3611   2.040   3.982   4.810
  302DOPC   D2A 3612   2.107   4.026   4.309
  302DOPC   C3A 3613   2.318   4.036   3.886
  302DOPC   C4A 3614   2.293   4.134   3.397
  302DOPC   C1B 3615   1.610   4.263   4.984
  302DOPC   D2B 3616   1.608   4.120   4.514
  302DOPC   C3B 3617   1.731   4.344   4.124
  302DOPC   C4B 3618   1.930   4.571   3.735
  303DOPC   NC3 3619  16.094   0.530   5.964
  303DOPC   PO4 3620  15.798   0.269   5.865
  303DOPC   GL1 3621  16.063   0.136   5.533
  303DOPC   GL2 3622  16.060   0.444   5.463
  303DOPC   C1A 3623  16.169   0.050   5.115
  303DOPC   D2A 3624  16.070   0.168   4.638
  303DOPC   C3A 3625  15.978   0.151   4.174
  303DOPC   C4A 3626  15.896   0.184   3.682
  303DOPC   C1B 3627  15.875   0.472   5.043
  303DOPC   D2B 3628  15.699   0.507   4.550
  303DOPC   C3B 3629  15.694   0.568   4.066
  303DOPC   C4B 3630  15.779   0.738   3.603
  304DOPC   NC3 3631  -0.002   6.018   5.716
  304DOPC   PO4 3632   0.258   5.740   5.848
  304DOPC   GL1 3633   0.230   5.420   5.543
  304DOPC   GL2 3634   0.536   5.401   5.521
  304DOPC   C1A 3635   0.193   5.385   5.100
  304DOPC   D2A 3636   0.439   5.399   4.650
  304DOPC   C3A 3637   0.413   5.590   4.223
  304DOPC   C4A 3638   0.237   5.647   3.760
  304DOPC   C1B 3639   0.690   5.528   5.102
  304DOPC   D2B 3640   0.827   5.737   4.653
  304DOPC   C3B 3641   0.803   5.968   4.238
  304DOPC   C4B 3642   0.584   6.030   3.801
  305DOPC   NC3 3643   5.048   7.590   5.872
  305DOPC   PO4 3644   5.353   7.565   5.611
  305DOPC   GL1 3645   5.392   7.275   5.266
  305DOPC   GL2 3646   5.135   7.128   5.343
  305DOPC   C1A 3647   5.378   7.253   4.820
  305DOPC   D2A 3648   5.113   7.345   4.418
  305DOPC   C3A 3649   5.139   7.415   3.961
  305DOPC   C4A 3650   5.115   7.481   3.476
  305DOPC   C1B 3651   4.933   7.031   4.934
  305DOPC   D2B 3652   4.738   6.985   4.449
  305DOPC   C3B 3653   4.739   7.041   3.955
  305DOPC   C4B 3654   4.722   6.938   3.450
  306DOPC   NC3 3655   1.667   8.332   5.667
  306DOPC   PO4 3656   2.014   8.514   5.783
  306DOPC   GL1 3657   2.134   8.721   5.391
  306DOPC   GL2 3658   1.952   8.469   5.282
  306DOPC   C1A 3659   2.267   8.704   4.959
  306DOPC   D2A 3660   2.396   8.631   4.474
  306DOPC   C3A 3661   2.222   8.597   4.032
  306DOPC   C4A 3662   1.895   8.497   3.668
  306DOPC   C1B 3663   1.934   8.347   4.834
  306DOPC   D2B 3664   1.892   8.314   4.322
  306DOPC   C3B 3665   2.070   8.067   3.956
  306DOPC   C4B 3666   2.433   7.806   3.738
  307DOPC   NC3 3667  18.183   5.726   6.033
  307DOPC   PO4 3668  18.117   5.482   5.712
  307DOPC   GL1 3669  18.318   5.558   5.280
  307DOPC   GL2 3670  18.307   5.845   5.402
  307DOPC   C1A 3671  18.419   5.671   4.832
  307DOPC   D2A 3672  18.504   5.787   4.336
  307DOPC   C3A 3673  18.252   5.671   3.944
  307DOPC   C4A 3674  17.856   5.519   3.661
  307DOPC   C1B 3675  18.422   6.122   5.073
  307DOPC   D2B 3676  18.403   6.372   4.643
  307DOPC   C3B 3677  18.304   6.250   4.204
  307DOPC   C4B 3678  18.211   6.157   3.737
  308DOPC   NC3 3679   8.109   9.471   6.009
  308DOPC   PO4 3680   8.427   9.467   5.767
  308DOPC   GL1 3681   8.258   9.315   5.385
  308DOPC   GL2 3682   8.017   9.478   5.512
  308DOPC   C1A 3683   8.336   9.390   4.931
  308DOPC   D2A 3684   8.390   9.452   4.431
  308DOPC   C3A 3685   8.190   9.330   4.025
  308DOPC   C4A 3686   7.897   9.230   3.628
  308DOPC   C1B 3687   8.105   9.769   5.179
  308DOPC   D2B 3688   8.224   9.864   4.693
  308DOPC   C3B 3689   8.073   9.807   4.234
  308DOPC   C4B 3690   7.864   9.726   3.779
  309DOPC   NC3 3691  13.480   0.424   5.832
  309DOPC   PO4 3692  13.624   0.738   5.637
  309DOPC   GL1 3693  13.597   0.544   5.256
  309DOPC   GL2 3694  13.335   0.403   5.348
  309DOPC   C1A 3695  13.679   0.584   4.809
  309DOPC   D2A 3696  13.807   0.534   4.318
  309DOPC   C3A 3697  13.765   0.519   3.852
  309DOPC   C4A 3698  13.696   0.449   3.366
  309DOPC   C1B 3699  13.193   0.518   4.936
  309DOPC   D2B 3700  13.304   0.725   4.479
  309DOPC   C3B 3701  13.290   0.494   4.068
  309DOPC   C4B 3702  13.340   0.209   3.657
  310DOPC   NC3 3703   5.163   2.580   5.646
  310DOPC   PO4 3704   4.787   2.435   5.648
  310DOPC   GL1 3705   4.835   2.465   5.271
  310DOPC   GL2 3706   4.919   2.754   5.255
  310DOPC   C1A 3707   4.950   2.270   4.905
  310DOPC   D2A 3708   4.922   2.157   4.427
  310DOPC   C3A 3709   4.982   2.385   4.014
  310DOPC   C4A 3710   5.177   2.566   3.594
  310DOPC   C1B 3711   4.990   2.771   4.819
  310DOPC   D2B 3712   4.979   2.793   4.319
  310DOPC   C3B 3713   5.171   2.955   3.913
  310DOPC   C4B 3714   5.324   3.032   3.438
  311DOPC   NC3 3715  15.771   4.647   5.677
  311DOPC   PO4 3716  15.470   4.384   5.619
  311DOPC   GL1 3717  15.550   4.629   5.237
  311DOPC   GL2 3718  15.818   4.461   5.253
  311DOPC   C1A 3719  15.595   4.654   4.788
  311DOPC   D2A 3720  15.693   4.656   4.287
  311DOPC   C3A 3721  15.665   4.296   3.974
  311DOPC   C4A 3722  15.639   4.306   3.478
  311DOPC   C1B 3723  15.797   4.059   5.052
  311DOPC   D2B 3724  15.719   3.778   4.643
  311DOPC   C3B 3725  15.932   3.974   4.258
  311DOPC   C4B 3726  16.149   4.124   3.826
  312DOPC   NC3 3727  18.058   6.843   5.830
  312DOPC   PO4 3728  18.415   6.642   5.825
  312DOPC   GL1 3729  18.339   6.456   5.422
  312DOPC   GL2 3730  18.369   6.765   5.356
  312DOPC   C1A 3731  17.965   6.305   5.176
  312DOPC   D2A 3732  17.612   6.179   4.828
  312DOPC   C3A 3733  17.597   6.225   4.350
  312DOPC   C4A 3734  17.700   6.311   3.865
  312DOPC   C1B 3735  18.178   6.721   4.976
  312DOPC   D2B 3736  17.907   6.536   4.616
  312DOPC   C3B 3737  17.960   6.626   4.170
  312DOPC   C4B 3738  18.072   6.661   3.696
  313DOPC   NC3 3739   2.499   9.533   6.241
  313DOPC   PO4 3740   2.695   9.545   5.896
  313DOPC   GL1 3741   2.454   9.582   5.541
  313DOPC   GL2 3742   2.651   9.828   5.466
  313DOPC   C1A 3743   2.439   9.496   5.128
  313DOPC   D2A 3744   2.667   9.512   4.688
  313DOPC   C3A 3745   2.591   9.412   4.245
  313DOPC   C4A 3746   2.548   9.304   3.772
  313DOPC   C1B 3747   2.796   9.879   5.057
  313DOPC   D2B 3748   3.018   9.984   4.616
  313DOPC   C3B 3749   2.941   9.795   4.203
  313DOPC   C4B 3750   2.968   9.629   3.740
  314DOPC   NC3 3751   3.338   5.249   5.953
  314DOPC   PO4 3752   3.047   5.165   5.693
  314DOPC   GL1 3753   3.245   5.301   5.364
  314DOPC   GL2 3754   3.512   5.203   5.463
  314DOPC   C1A 3755   3.217   5.098   4.983
  314DOPC   D2A 3756   3.116   4.829   4.574
  314DOPC   C3A 3757   3.296   5.050   4.210
  314DOPC   C4A 3758   3.388   5.319   3.816
  314DOPC   C1B 3759   3.719   5.002   5.114
  314DOPC   D2B 3760   3.838   4.812   4.665
  314DOPC   C3B 3761   3.826   4.867   4.198
  314DOPC   C4B 3762   4.013   4.979   3.758
  315DOPC   NC3 3763  16.624   2.785   5.783
  315DOPC   PO4 3764  16.911   2.517   5.734
  315DOPC   GL1 3765  16.807   2.729   5.360
  315DOPC   GL2 3766  16.505   2.620   5.379
  315DOPC   C1A 3767  16.871   2.890   4.946
  315DOPC   D2A 3768  16.967   2.647   4.521
  315DOPC   C3A 3769  16.821   2.910   4.162
  315DOPC   C4A 3770  16.575   2.826   3.746
  315DOPC   C1B 3771  16.366   2.820   5.028
  315DOPC   D2B 3772  16.489   2.900   4.555
  315DOPC   C3B 3773  16.343   2.645   4.183
  315DOPC   C4B 3774  16.442   2.311   3.822
  316DOPC   NC3 3775  16.717   2.097   5.916
  316DOPC   PO4 3776  16.427   2.297   5.727
  316DOPC   GL1 3777  16.732   2.238   5.425
  316DOPC   GL2 3778  16.658   1.950   5.431
  316DOPC   C1A 3779  16.744   2.406   5.031
  316DOPC   D2A 3780  16.430   2.411   4.659
  316DOPC   C3A 3781  16.679   2.286   4.300
  316DOPC   C4A 3782  16.916   2.471   3.929
  316DOPC   C1B 3783  16.464   1.970   5.020
  316DOPC   D2B 3784  16.334   1.911   4.529
  316DOPC   C3B 3785  16.529   1.848   4.101
  316DOPC   C4B 3786  16.868   1.979   3.760
  317DOPC   NC3 3787   8.600   3.805   6.081
  317DOPC   PO4 3788   8.493   4.049   5.772
  317DOPC   GL1 3789   8.408   3.977   5.337
  317DOPC   GL2 3790   8.340   3.680   5.368
  317DOPC   C1A 3791   8.501   3.903   4.898
  317DOPC   D2A 3792   8.497   3.684   4.435
  317DOPC   C3A 3793   8.806   3.657   4.059
  317DOPC   C4A 3794   9.124   3.817   3.700
  317DOPC   C1B 3795   8.420   3.418   4.976
  317DOPC   D2B 3796   8.596   3.193   4.531
  317DOPC   C3B 3797   8.536   3.187   4.053
  317DOPC   C4B 3798   8.470   3.217   3.559
  318DOPC   NC3 3799   1.246   1.224   5.794
  318DOPC   PO4 3800   1.603   1.164   5.616
  318DOPC   GL1 3801   1.596   1.492   5.324
  318DOPC   GL2 3802   1.291   1.537   5.422
  318DOPC   C1A 3803   1.666   1.472   4.878
  318DOPC   D2A 3804   1.690   1.344   4.387
  318DOPC   C3A 3805   1.755   1.154   3.951
  318DOPC   C4A 3806   1.567   1.234   3.479
  318DOPC   C1B 3807   0.977   1.530   5.091
  318DOPC   D2B 3808   0.772   1.585   4.634
  318DOPC   C3B 3809   0.986   1.382   4.271
  318DOPC   C4B 3810   1.251   1.246   3.883
  319DOPC   NC3 3811   1.336   9.891   5.696
  319DOPC   PO4 3812   0.952   9.813   5.613
  319DOPC   GL1 3813   0.913   9.891   5.223
  319DOPC   GL2 3814   0.771   0.169   5.248
  319DOPC   C1A 3815   1.072   9.920   4.811
  319DOPC   D2A 3816   1.239  -0.032   4.345
  319DOPC   C3A 3817   1.179   0.240   3.968
  319DOPC   C4A 3818   0.920   0.453   3.606
  319DOPC   C1B 3819   0.834   0.384   4.846
  319DOPC   D2B 3820   0.934   0.550   4.357
  319DOPC   C3B 3821   1.263   0.737   4.048
  319DOPC   C4B 3822   1.669   0.692   3.742
  320DOPC   NC3 3823   1.193   6.941   5.824
  320DOPC   PO4 3824   0.838   7.076   5.670
  320DOPC   GL1 3825   0.902   7.120   5.195
  320DOPC   GL2 3826   1.045   6.850   5.263
  320DOPC   C1A 3827   0.989   7.105   4.732
  320DOPC   D2A 3828   1.133   6.927   4.273
  320DOPC   C3A 3829   1.004   6.978   3.817
  320DOPC   C4A 3830   1.071   7.177   3.351
  320DOPC   C1B 3831   1.202   6.658   4.875
  320DOPC   D2B 3832   1.163   6.417   4.430
  320DOPC   C3B 3833   1.145   6.444   3.957
  320DOPC   C4B 3834   1.327   6.342   3.502
  321DOPC   NC3 3835  13.739   4.889   5.760
  321DOPC   PO4 3836  13.499   5.195   5.865
  321DOPC   GL1 3837  13.443   5.191   5.403
  321DOPC   GL2 3838  13.324   4.910   5.493
  321DOPC   C1A 3839  13.564   5.205   4.939
  321DOPC   D2A 3840  13.588   5.213   4.421
  321DOPC   C3A 3841  13.534   5.330   3.947
  321DOPC   C4A 3842  13.527   5.576   3.501
  321DOPC   C1B 3843  13.532   4.725   5.138
  321DOPC   D2B 3844  13.770   4.767   4.696
  321DOPC   C3B 3845  13.587   4.723   4.264
  321DOPC   C4B 3846  13.359   4.695   3.835
  322DOPC   NC3 3847  14.611   6.539   5.746
  322DOPC   PO4 3848  14.519   6.164   5.677
  322DOPC   GL1 3849  14.443   6.325   5.316
  322DOPC   GL2 3850  14.302   6.588   5.386
  322DOPC   C1A 3851  14.504   6.250   4.881
  322DOPC   D2A 3852  14.571   6.157   4.391
  322DOPC   C3A 3853  14.575   6.437   4.005
  322DOPC   C4A 3854  14.542   6.755   3.626
  322DOPC   C1B 3855  14.365   6.746   4.971
  322DOPC   D2B 3856  14.407   6.638   4.480
  322DOPC   C3B 3857  14.382   6.926   4.111
  322DOPC   C4B 3858  14.056   6.871   3.747
  323DOPC   NC3 3859   1.021   8.953   5.937
  323DOPC   PO4 3860   0.940   8.676   5.657
  323DOPC   GL1 3861   1.235   8.747   5.380
  323DOPC   GL2 3862   1.282   9.048   5.499
  323DOPC   C1A 3863   1.083   8.697   4.946
  323DOPC   D2A 3864   0.984   8.586   4.460
  323DOPC   C3A 3865   0.936   8.575   3.987
  323DOPC   C4A 3866   0.897   8.593   3.489
  323DOPC   C1B 3867   1.353   9.130   5.082
  323DOPC   D2B 3868   1.390   8.959   4.614
  323DOPC   C3B 3869   1.270   8.952   4.175
  323DOPC   C4B 3870   1.111   8.981   3.714
  324DOPC   NC3 3871  18.294   0.371   5.527
  324DOPC   PO4 3872  17.941   0.200   5.437
  324DOPC   GL1 3873  17.820   0.506   5.147
  324DOPC   GL2 3874  18.010   0.696   5.299
  324DOPC   C1A 3875  17.910   0.532   4.701
  324DOPC   D2A 3876  17.897   0.645   4.194
  324DOPC   C3A 3877  17.765   0.486   3.759
  324DOPC   C4A 3878  17.737   0.321   3.281
  324DOPC   C1B 3879  18.345   0.613   5.021
  324DOPC   D2B 3880  18.680   0.639   4.644
  324DOPC   C3B 3881  18.524   0.614   4.201
  324DOPC   C4B 3882  18.273   0.606   3.778
  325DOPC   NC3 3883  17.141   3.882   6.004
  325DOPC   PO4 3884  17.157   4.113   5.680
  325DOPC   GL1 3885  17.342   3.960   5.354
  325DOPC   GL2 3886  17.619   4.092   5.390
  325DOPC   C1A 3887  17.102   3.961   4.977
  325DOPC   D2A 3888  16.843   3.865   4.542
  325DOPC   C3A 3889  16.985   4.019   4.113
  325DOPC   C4A 3890  17.355   4.168   3.801
  325DOPC   C1B 3891  17.692   4.286   4.972
  325DOPC   D2B 3892  17.710   4.473   4.488
  325DOPC   C3B 3893  17.696   4.502   4.006
  325DOPC   C4B 3894  17.576   4.569   3.513
  326DOPC   NC3 3895  13.462   1.283   5.839
  326DOPC   PO4 3896  13.136   1.065   5.744
  326DOPC   GL1 3897  13.263   0.904   5.337
  326DOPC   GL2 3898  13.498   1.107   5.385
  326DOPC   C1A 3899  13.229   1.041   4.901
  326DOPC   D2A 3900  12.989   1.146   4.472
  326DOPC   C3A 3901  13.173   1.083   4.040
  326DOPC   C4A 3902  13.394   1.237   3.624
  326DOPC   C1B 3903  13.741   1.073   5.015
  326DOPC   D2B 3904  13.769   1.006   4.523
  326DOPC   C3B 3905  13.917   1.044   4.078
  326DOPC   C4B 3906  13.871   1.403   3.744
  327DOPC   NC3 3907  13.515   9.582   5.696
  327DOPC   PO4 3908  13.134   9.476   5.611
  327DOPC   GL1 3909  13.371   9.175   5.481
  327DOPC   GL2 3910  13.212   9.028   5.300
  327DOPC   C1A 3911  13.638   9.307   5.160
  327DOPC   D2A 3912  13.735   9.289   4.661
  327DOPC   C3A 3913  13.598   9.208   4.213
  327DOPC   C4A 3914  13.473   9.073   3.747
  327DOPC   C1B 3915  13.398   8.937   4.883
  327DOPC   D2B 3916  13.702   8.783   4.494
  327DOPC   C3B 3917  13.656   8.686   4.030
  327DOPC   C4B 3918  13.679   8.625   3.528
  328DOPC   NC3 3919   0.113   9.655   1.327
  328DOPC   PO4 3920   0.178   0.055   1.361
  328DOPC   GL1 3921   0.116   0.032   1.788
  328DOPC   GL2 3922  19.820   0.141   1.788
  328DOPC   C1A 3923   0.125   9.630   2.002
  328DOPC   D2A 3924   0.186   9.212   2.306
  328DOPC   C3A 3925   0.087   9.220   2.773
  328DOPC   C4A 3926  19.976   9.496   3.181
  328DOPC   C1B 3927  19.529   0.039   2.143
  328DOPC   D2B 3928  19.227   9.986   2.566
  328DOPC   C3B 3929  19.135   9.778   2.991
  328DOPC   C4B 3930  19.179   9.498   3.415
  329DOPC   NC3 3931  13.434   1.181   1.206
  329DOPC   PO4 3932  13.656   1.465   1.375
  329DOPC   GL1 3933  13.343   1.404   1.678
  329DOPC   GL2 3934  13.425   1.107   1.676
  329DOPC   C1A 3935  13.196   1.401   2.089
  329DOPC   D2A 3936  13.273   1.155   2.485
  329DOPC   C3A 3937  13.449   1.266   2.885
  329DOPC   C4A 3938  13.753   1.346   3.255
  329DOPC   C1B 3939  13.611   1.077   2.086
  329DOPC   D2B 3940  13.756   0.977   2.563
  329DOPC   C3B 3941  13.716   0.859   3.031
  329DOPC   C4B 3942  13.789   0.929   3.531
  330DOPC   NC3 3943  10.644   1.691   1.109
  330DOPC   PO4 3944  10.511   1.946   1.392
  330DOPC   GL1 3945  10.852   1.932   1.653
  330DOPC   GL2 3946  10.878   2.236   1.675
  330DOPC   C1A 3947  10.770   1.705   2.038
  330DOPC   D2A 3948  10.542   1.493   2.448
  330DOPC   C3A 3949  10.369   1.641   2.875
  330DOPC   C4A 3950  10.007   1.678   3.225
  330DOPC   C1B 3951  10.698   2.224   2.082
  330DOPC   D2B 3952  10.579   2.015   2.532
  330DOPC   C3B 3953  10.413   2.157   2.954
  330DOPC   C4B 3954  10.106   2.417   3.233
  331DOPC   NC3 3955  10.013   5.629   1.220
  331DOPC   PO4 3956  10.388   5.569   1.339
  331DOPC   GL1 3957  10.281   5.523   1.720
  331DOPC   GL2 3958  10.084   5.766   1.665
  331DOPC   C1A 3959  10.421   5.544   2.126
  331DOPC   D2A 3960  10.414   5.731   2.586
  331DOPC   C3A 3961  10.125   5.641   2.931
  331DOPC   C4A 3962   9.774   5.719   3.269
  331DOPC   C1B 3963   9.907   5.970   1.997
  331DOPC   D2B 3964   9.856   5.804   2.462
  331DOPC   C3B 3965   9.751   6.028   2.852
  331DOPC   C4B 3966   9.785   6.319   3.244
  332DOPC   NC3 3967  16.728   4.729   1.215
  332DOPC   PO4 3968  16.469   4.554   1.463
  332DOPC   GL1 3969  16.473   4.864   1.727
  332DOPC   GL2 3970  16.627   5.060   1.538
  332DOPC   C1A 3971  16.592   4.860   2.176
  332DOPC   D2A 3972  16.646   4.915   2.681
  332DOPC   C3A 3973  16.509   4.814   3.128
  332DOPC   C4A 3974  16.485   4.598   3.589
  332DOPC   C1B 3975  16.659   5.359   1.844
  332DOPC   D2B 3976  16.554   5.416   2.326
  332DOPC   C3B 3977  16.479   5.401   2.784
  332DOPC   C4B 3978  16.407   5.429   3.267
  333DOPC   NC3 3979  17.336   1.160   1.262
  333DOPC   PO4 3980  17.675   1.068   1.456
  333DOPC   GL1 3981  17.521   1.286   1.795
  333DOPC   GL2 3982  17.225   1.282   1.698
  333DOPC   C1A 3983  17.498   1.460   2.211
  333DOPC   D2A 3984  17.451   1.742   2.627
  333DOPC   C3A 3985  17.464   1.593   3.066
  333DOPC   C4A 3986  17.783   1.737   3.406
  333DOPC   C1B 3987  17.043   1.276   2.093
  333DOPC   D2B 3988  17.168   1.304   2.583
  333DOPC   C3B 3989  17.193   1.114   3.015
  333DOPC   C4B 3990  17.008   0.915   3.429
  334DOPC   NC3 3991   9.260   3.877   0.938
  334DOPC   PO4 3992   9.116   3.912   1.302
  334DOPC   GL1 3993   9.079   4.250   1.522
  334DOPC   GL2 3994   8.767   4.275   1.430
  334DOPC   C1A 3995   9.153   4.061   1.938
  334DOPC   D2A 3996   9.100   3.754   2.337
  334DOPC   C3A 3997   9.074   3.831   2.786
  334DOPC   C4A 3998   8.984   4.000   3.235
  334DOPC   C1B 3999   8.677   4.250   1.854
  334DOPC   D2B 4000   8.778   4.171   2.341
  334DOPC   C3B 4001   8.670   4.177   2.800
  334DOPC   C4B 4002   8.467   4.135   3.246
  335DOPC   NC3 4003  15.940   9.526   0.966
  335DOPC   PO4 4004  15.793   9.839   1.156
  335DOPC   GL1 4005  15.559   9.841   1.528
  335DOPC   GL2 4006  15.478   9.548   1.470
  335DOPC   C1A 4007  15.810   9.731   1.885
  335DOPC   D2A 4008  15.920   9.451   2.290
  335DOPC   C3A 4009  15.963   9.601   2.733
  335DOPC   C4A 4010  15.958   9.934   3.107
  335DOPC   C1B 4011  15.547   9.266   1.821
  335DOPC   D2B 4012  15.622   9.036   2.263
  335DOPC   C3B 4013  15.636   9.188   2.705
  335DOPC   C4B 4014  15.797   9.337   3.157
  336DOPC   NC3 4015   4.700   9.653   1.207
  336DOPC   PO4 4016   4.986   9.395   1.316
  336DOPC   GL1 4017   5.196   9.237   1.670
  336DOPC   GL2 4018   4.939   9.277   1.824
  336DOPC   C1A 4019   5.403   9.362   2.032
  336DOPC   D2A 4020   5.402   9.551   2.507
  336DOPC   C3A 4021   5.099   9.464   2.868
  336DOPC   C4A 4022   4.839   9.391   3.299
  336DOPC   C1B 4023   4.968   9.574   2.185
  336DOPC   D2B 4024   4.930   9.902   2.573
  336DOPC   C3B 4025   5.030   9.950   3.036
  336DOPC   C4B 4026   5.046   0.124   3.507
  337DOPC   NC3 4027   2.567   8.995   1.343
  337DOPC   PO4 4028   2.642   8.604   1.254
  337DOPC   GL1 4029   2.868   8.484   1.629
  337DOPC   GL2 4030   2.900   8.795   1.639
  337DOPC   C1A 4031   3.027   8.491   2.054
  337DOPC   D2A 4032   3.152   8.504   2.544
  337DOPC   C3A 4033   2.824   8.685   2.839
  337DOPC   C4A 4034   2.874   8.950   3.256
  337DOPC   C1B 4035   2.685   8.949   2.001
  337DOPC   D2B 4036   2.552   9.226   2.407
  337DOPC   C3B 4037   2.637   9.240   2.863
  337DOPC   C4B 4038   2.431   9.182   3.304
  338DOPC   NC3 4039   8.853   8.132   1.195
  338DOPC   PO4 4040   8.654   8.472   1.265
  338DOPC   GL1 4041   8.727   8.532   1.688
  338DOPC   GL2 4042   8.834   8.238   1.665
  338DOPC   C1A 4043   8.843   8.482   2.117
  338DOPC   D2A 4044   8.904   8.505   2.618
  338DOPC   C3A 4045   8.940   8.424   3.076
  338DOPC   C4A 4046   9.036   8.312   3.545
  338DOPC   C1B 4047   8.712   7.933   1.987
  338DOPC   D2B 4048   8.641   7.695   2.438
  338DOPC   C3B 4049   8.665   7.958   2.842
  338DOPC   C4B 4050   8.557   8.167   3.296
  339DOPC   NC3 4051  13.112   5.047   0.989
  339DOPC   PO4 4052  13.039   4.806   1.300
  339DOPC   GL1 4053  12.902   5.010   1.626
  339DOPC   GL2 4054  12.634   4.878   1.592
  339DOPC   C1A 4055  13.055   4.815   1.997
  339DOPC   D2A 4056  13.235   4.976   2.430
  339DOPC   C3A 4057  13.042   4.996   2.850
  339DOPC   C4A 4058  12.830   4.858   3.279
  339DOPC   C1B 4059  12.545   4.918   2.013
  339DOPC   D2B 4060  12.659   5.048   2.484
  339DOPC   C3B 4061  12.554   4.780   2.848
  339DOPC   C4B 4062  12.396   4.497   3.220
  340DOPC   NC3 4063  10.693   8.901   1.015
  340DOPC   PO4 4064  10.763   9.267   1.159
  340DOPC   GL1 4065  10.988   9.074   1.462
  340DOPC   GL2 4066  10.750   8.906   1.550
  340DOPC   C1A 4067  11.078   9.165   1.858
  340DOPC   D2A 4068  10.967   9.246   2.330
  340DOPC   C3A 4069  10.724   9.281   2.733
  340DOPC   C4A 4070  10.457   9.366   3.148
  340DOPC   C1B 4071  10.599   8.925   1.996
  340DOPC   D2B 4072  10.425   8.904   2.483
  340DOPC   C3B 4073  10.512   8.832   2.950
  340DOPC   C4B 4074  10.479   8.648   3.414
  341DOPC   NC3 4075   4.440   7.124   0.960
  341DOPC   PO4 4076   4.778   7.104   1.166
  341DOPC   GL1 4077   4.569   6.903   1.474
  341DOPC   GL2 4078   4.411   7.181   1.444
  341DOPC   C1A 4079   4.489   6.951   1.884
  341DOPC   D2A 4080   4.470   7.198   2.300
  341DOPC   C3A 4081   4.469   7.142   2.745
  341DOPC   C4A 4082   4.311   7.179   3.197
  341DOPC   C1B 4083   4.420   7.446   1.799
  341DOPC   D2B 4084   4.352   7.680   2.240
  341DOPC   C3B 4085   4.392   7.726   2.700
  341DOPC   C4B 4086   4.347   7.746   3.179
  342DOPC   NC3 4087  14.014   5.915   1.143
  342DOPC   PO4 4088  13.819   5.564   1.205
  342DOPC   GL1 4089  13.655   5.468   1.605
  342DOPC   GL2 4090  13.356   5.469   1.494
  342DOPC   C1A 4091  13.614   5.669   2.005
  342DOPC   D2A 4092  13.413   5.773   2.464
  342DOPC   C3A 4093  13.587   5.910   2.887
  342DOPC   C4A 4094  13.708   6.240   3.252
  342DOPC   C1B 4095  13.105   5.673   1.820
  342DOPC   D2B 4096  12.919   5.851   2.266
  342DOPC   C3B 4097  13.004   5.901   2.745
  342DOPC   C4B 4098  13.191   5.890   3.214
  343DOPC   NC3 4099  12.873   6.767   1.127
  343DOPC   PO4 4100  12.500   6.740   1.268
  343DOPC   GL1 4101  12.404   6.973   1.625
  343DOPC   GL2 4102  12.613   7.194   1.562
  343DOPC   C1A 4103  12.397   7.034   2.066
  343DOPC   D2A 4104  12.507   7.231   2.509
  343DOPC   C3A 4105  12.381   7.120   2.944
  343DOPC   C4A 4106  12.429   6.988   3.416
  343DOPC   C1B 4107  12.703   7.443   1.944
  343DOPC   D2B 4108  12.859   7.601   2.410
  343DOPC   C3B 4109  12.841   7.429   2.856
  343DOPC   C4B 4110  12.917   7.201   3.303
  344DOPC   NC3 4111  14.281   8.853   1.172
  344DOPC   PO4 4112  14.074   9.193   1.232
  344DOPC   GL1 4113  14.256   9.304   1.588
  344DOPC   GL2 4114  14.434   9.043   1.570
  344DOPC   C1A 4115  14.124   9.229   2.004
  344DOPC   D2A 4116  14.019   9.047   2.464
  344DOPC   C3A 4117  14.128   9.147   2.915
  344DOPC   C4A 4118  14.260   9.230   3.382
  344DOPC   C1B 4119  14.278   8.739   1.860
  344DOPC   D2B 4120  14.311   8.573   2.333
  344DOPC   C3B 4121  14.240   8.658   2.790
  344DOPC   C4B 4122  14.153   8.735   3.274
  345DOPC   NC3 4123   5.127   7.500   1.189
  345DOPC   PO4 4124   5.292   7.129   1.209
  345DOPC   GL1 4125   5.178   6.947   1.584
  345DOPC   GL2 4126   4.928   7.128   1.618
  345DOPC   C1A 4127   5.362   7.146   1.934
  345DOPC   D2A 4128   5.460   7.444   2.333
  345DOPC   C3A 4129   5.260   7.310   2.739
  345DOPC   C4A 4130   5.114   7.096   3.151
  345DOPC   C1B 4131   4.884   7.324   2.040
  345DOPC   D2B 4132   4.835   7.529   2.520
  345DOPC   C3B 4133   4.763   7.469   3.007
  345DOPC   C4B 4134   4.620   7.436   3.502
  346DOPC   NC3 4135  15.767   3.930   1.416
  346DOPC   PO4 4136  16.154   3.835   1.395
  346DOPC   GL1 4137  16.283   4.141   1.594
  346DOPC   GL2 4138  16.057   4.308   1.477
  346DOPC   C1A 4139  16.259   4.173   2.024
  346DOPC   D2A 4140  16.214   4.531   2.367
  346DOPC   C3A 4141  16.070   4.389   2.788
  346DOPC   C4A 4142  16.108   4.473   3.270
  346DOPC   C1B 4143  15.928   4.519   1.859
  346DOPC   D2B 4144  15.763   4.297   2.287
  346DOPC   C3B 4145  15.523   4.316   2.697
  346DOPC   C4B 4146  15.284   4.188   3.120
  347DOPC   NC3 4147   1.011   4.180   1.249
  347DOPC   PO4 4148   1.355   3.978   1.225
  347DOPC   GL1 4149   1.471   4.080   1.658
  347DOPC   GL2 4150   1.279   4.316   1.645
  347DOPC   C1A 4151   1.644   4.131   2.089
  347DOPC   D2A 4152   1.592   4.112   2.599
  347DOPC   C3A 4153   1.426   4.212   3.030
  347DOPC   C4A 4154   1.375   4.488   3.449
  347DOPC   C1B 4155   1.252   4.444   2.090
  347DOPC   D2B 4156   1.232   4.485   2.599
  347DOPC   C3B 4157   1.039   4.550   3.018
  347DOPC   C4B 4158   0.966   4.203   3.363
  348DOPC   NC3 4159  16.623   1.627   1.182
  348DOPC   PO4 4160  16.943   1.569   1.416
  348DOPC   GL1 4161  16.941   1.972   1.569
  348DOPC   GL2 4162  16.653   1.990   1.467
  348DOPC   C1A 4163  16.869   2.090   1.983
  348DOPC   D2A 4164  16.609   2.015   2.407
  348DOPC   C3A 4165  16.491   1.849   2.839
  348DOPC   C4A 4166  16.589   1.872   3.316
  348DOPC   C1B 4167  16.380   2.020   1.805
  348DOPC   D2B 4168  16.176   2.216   2.205
  348DOPC   C3B 4169  16.202   2.221   2.664
  348DOPC   C4B 4170  16.164   2.151   3.161
  349DOPC   NC3 4171   5.112   3.120   1.091
  349DOPC   PO4 4172   4.996   3.458   1.263
  349DOPC   GL1 4173   5.310   3.281   1.505
  349DOPC   GL2 4174   5.049   3.120   1.590
  349DOPC   C1A 4175   5.492   3.104   1.846
  349DOPC   D2A 4176   5.348   2.895   2.277
  349DOPC   C3A 4177   5.180   2.855   2.709
  349DOPC   C4A 4178   4.986   2.751   3.147
  349DOPC   C1B 4179   5.047   2.783   1.892
  349DOPC   D2B 4180   5.097   2.400   2.238
  349DOPC   C3B 4181   5.214   2.337   2.700
  349DOPC   C4B 4182   5.399   2.374   3.156
  350DOPC   NC3 4183  12.527   6.124   1.346
  350DOPC   PO4 4184  12.884   6.296   1.285
  350DOPC   GL1 4185  12.744   6.526   1.604
  350DOPC   GL2 4186  12.838   6.802   1.589
  350DOPC   C1A 4187  12.577   6.560   2.001
  350DOPC   D2A 4188  12.507   6.702   2.476
  350DOPC   C3A 4189  12.793   6.424   2.727
  350DOPC   C4A 4190  12.806   6.223   3.182
  350DOPC   C1B 4191  12.911   6.967   2.002
  350DOPC   D2B 4192  13.035   7.106   2.479
  350DOPC   C3B 4193  12.836   6.910   2.863
  350DOPC   C4B 4194  12.474   6.618   3.054
  351DOPC   NC3 4195  13.323   2.748   1.161
  351DOPC   PO4 4196  13.452   2.416   1.332
  351DOPC   GL1 4197  13.273   2.516   1.725
  351DOPC   GL2 4198  13.336   2.812   1.626
  351DOPC   C1A 4199  13.359   2.619   2.158
  351DOPC   D2A 4200  13.460   2.830   2.603
  351DOPC   C3A 4201  13.501   2.644   3.030
  351DOPC   C4A 4202  13.559   2.314   3.387
  351DOPC   C1B 4203  13.634   2.991   1.908
  351DOPC   D2B 4204  13.892   2.997   2.347
  351DOPC   C3B 4205  13.927   2.895   2.814
  351DOPC   C4B 4206  13.788   2.999   3.279
  352DOPC   NC3 4207  11.634   2.843   1.003
  352DOPC   PO4 4208  11.638   2.475   1.180
  352DOPC   GL1 4209  11.842   2.696   1.443
  352DOPC   GL2 4210  11.698   2.966   1.442
  352DOPC   C1A 4211  11.934   2.567   1.852
  352DOPC   D2A 4212  11.997   2.436   2.323
  352DOPC   C3A 4213  11.940   2.438   2.789
  352DOPC   C4A 4214  12.123   2.322   3.223
  352DOPC   C1B 4215  11.911   3.081   1.805
  352DOPC   D2B 4216  11.788   2.919   2.265
  352DOPC   C3B 4217  12.036   2.929   2.665
  352DOPC   C4B 4218  12.173   3.027   3.140
  353DOPC   NC3 4219  12.536   8.118   1.028
  353DOPC   PO4 4220  12.778   8.441   1.021
  353DOPC   GL1 4221  12.784   8.537   1.469
  353DOPC   GL2 4222  12.703   8.214   1.475
  353DOPC   C1A 4223  12.685   8.519   1.908
  353DOPC   D2A 4224  12.602   8.482   2.404
  353DOPC   C3A 4225  12.749   8.417   2.846
  353DOPC   C4A 4226  12.898   8.446   3.327
  353DOPC   C1B 4227  12.641   8.001   1.882
  353DOPC   D2B 4228  12.523   7.964   2.384
  353DOPC   C3B 4229  12.628   7.895   2.842
  353DOPC   C4B 4230  12.856   7.747   3.268
  354DOPC   NC3 4231   9.013   6.716   1.117
  354DOPC   PO4 4232   8.789   7.041   1.199
  354DOPC   GL1 4233   8.503   6.822   1.498
  354DOPC   GL2 4234   8.734   6.649   1.493
  354DOPC   C1A 4235   8.480   6.763   1.929
  354DOPC   D2A 4236   8.502   6.656   2.426
  354DOPC   C3A 4237   8.433   6.822   2.865
  354DOPC   C4A 4238   8.354   7.105   3.270
  354DOPC   C1B 4239   8.953   6.627   1.891
  354DOPC   D2B 4240   9.025   6.526   2.384
  354DOPC   C3B 4241   8.944   6.743   2.791
  354DOPC   C4B 4242   8.863   6.903   3.253
  355DOPC   NC3 4243   2.563   7.630   0.908
  355DOPC   PO4 4244   2.377   7.361   1.128
  355DOPC   GL1 4245   2.506   7.637   1.426
  355DOPC   GL2 4246   2.793   7.645   1.361
  355DOPC   C1A 4247   2.526   7.613   1.864
  355DOPC   D2A 4248   2.611   7.679   2.357
  355DOPC   C3A 4249   2.614   7.686   2.827
  355DOPC   C4A 4250   2.584   7.463   3.270
  355DOPC   C1B 4251   3.020   7.622   1.773
  355DOPC   D2B 4252   3.134   7.613   2.271
  355DOPC   C3B 4253   3.110   7.582   2.752
  355DOPC   C4B 4254   3.081   7.611   3.256
  356DOPC   NC3 4255   3.776   2.818   1.213
  356DOPC   PO4 4256   4.147   2.977   1.204
  356DOPC   GL1 4257   4.230   3.013   1.645
  356DOPC   GL2 4258   3.964   2.846   1.649
  356DOPC   C1A 4259   4.271   2.881   2.084
  356DOPC   D2A 4260   4.263   2.814   2.593
  356DOPC   C3A 4261   3.968   2.760   2.977
  356DOPC   C4A 4262   3.691   2.680   3.397
  356DOPC   C1B 4263   3.795   2.739   2.056
  356DOPC   D2B 4264   3.754   2.637   2.545
  356DOPC   C3B 4265   3.459   2.679   2.928
  356DOPC   C4B 4266   3.117   2.724   3.296
  357DOPC   NC3 4267   7.291   2.461   1.045
  357DOPC   PO4 4268   7.635   2.457   1.261
  357DOPC   GL1 4269   7.538   2.665   1.582
  357DOPC   GL2 4270   7.577   2.943   1.549
  357DOPC   C1A 4271   7.474   2.624   2.010
  357DOPC   D2A 4272   7.465   2.526   2.502
  357DOPC   C3A 4273   7.523   2.540   2.975
  357DOPC   C4A 4274   7.112   2.554   3.259
  357DOPC   C1B 4275   7.532   3.131   1.947
  357DOPC   D2B 4276   7.243   3.025   2.336
  357DOPC   C3B 4277   7.368   2.981   2.778
  357DOPC   C4B 4278   7.469   2.989   3.264
  358DOPC   NC3 4279   5.744   1.216   0.872
  358DOPC   PO4 4280   5.398   1.030   0.974
  358DOPC   GL1 4281   5.336   1.244   1.347
  358DOPC   GL2 4282   5.643   1.317   1.324
  358DOPC   C1A 4283   5.355   1.345   1.774
  358DOPC   D2A 4284   5.461   1.473   2.251
  358DOPC   C3A 4285   5.576   1.509   2.710
  358DOPC   C4A 4286   5.750   1.504   3.176
  358DOPC   C1B 4287   5.866   1.346   1.727
  358DOPC   D2B 4288   5.980   1.401   2.222
  358DOPC   C3B 4289   6.055   1.355   2.713
  358DOPC   C4B 4290   6.162   1.198   3.182
  359DOPC   NC3 4291   8.809   1.473   1.118
  359DOPC   PO4 4292   9.099   1.617   1.357
  359DOPC   GL1 4293   8.886   1.759   1.653
  359DOPC   GL2 4294   8.742   1.994   1.507
  359DOPC   C1A 4295   9.049   1.884   2.035
  359DOPC   D2A 4296   9.063   2.084   2.483
  359DOPC   C3A 4297   9.166   1.905   2.905
  359DOPC   C4A 4298   9.119   1.696   3.348
  359DOPC   C1B 4299   8.619   2.106   1.910
  359DOPC   D2B 4300   8.612   1.826   2.313
  359DOPC   C3B 4301   8.659   1.923   2.759
  359DOPC   C4B 4302   8.709   2.031   3.221
  360DOPC   NC3 4303  11.623   0.677   1.215
  360DOPC   PO4 4304  11.572   0.382   1.482
  360DOPC   GL1 4305  11.562   0.473   1.925
  360DOPC   GL2 4306  11.823   0.647   1.866
  360DOPC   C1A 4307  11.750   0.329   2.306
  360DOPC   D2A 4308  12.066   0.132   2.650
  360DOPC   C3A 4309  11.828   0.320   3.020
  360DOPC   C4A 4310  11.534   0.642   3.266
  360DOPC   C1B 4311  12.202   0.495   2.094
  360DOPC   D2B 4312  12.559   0.236   2.369
  360DOPC   C3B 4313  12.539   0.183   2.841
  360DOPC   C4B 4314  12.220   0.005   3.188
  361DOPC   NC3 4315   1.288   2.899   1.081
  361DOPC   PO4 4316   0.961   2.830   1.303
  361DOPC   GL1 4317   1.091   2.916   1.704
  361DOPC   GL2 4318   1.261   2.641   1.686
  361DOPC   C1A 4319   0.969   2.985   2.141
  361DOPC   D2A 4320   0.763   2.802   2.569
  361DOPC   C3A 4321   0.740   2.839   3.043
  361DOPC   C4A 4322   0.735   2.861   3.541
  361DOPC   C1B 4323   1.214   2.503   2.115
  361DOPC   D2B 4324   1.222   2.489   2.624
  361DOPC   C3B 4325   1.307   2.537   3.099
  361DOPC   C4B 4326   1.484   2.514   3.577
  362DOPC   NC3 4327  16.839   1.066   1.487
  362DOPC   PO4 4328  16.510   1.165   1.266
  362DOPC   GL1 4329  16.408   1.234   1.622
  362DOPC   GL2 4330  16.482   1.546   1.620
  362DOPC   C1A 4331  16.589   1.067   1.993
  362DOPC   D2A 4332  16.785   0.967   2.438
  362DOPC   C3A 4333  16.653   1.080   2.869
  362DOPC   C4A 4334  16.505   1.358   3.245
  362DOPC   C1B 4335  16.647   1.617   2.032
  362DOPC   D2B 4336  16.680   1.496   2.522
  362DOPC   C3B 4337  16.888   1.535   2.947
  362DOPC   C4B 4338  17.031   1.446   3.404
  363DOPC   NC3 4339   0.684   6.605   0.945
  363DOPC   PO4 4340   0.589   6.504   1.321
  363DOPC   GL1 4341   0.370   6.783   1.579
  363DOPC   GL2 4342   0.133   6.628   1.481
  363DOPC   C1A 4343   0.563   6.647   1.974
  363DOPC   D2A 4344   0.833   6.462   2.367
  363DOPC   C3A 4345   0.748   6.628   2.795
  363DOPC   C4A 4346   0.596   6.965   3.121
  363DOPC   C1B 4347   0.187   6.347   1.813
  363DOPC   D2B 4348   0.357   6.244   2.272
  363DOPC   C3B 4349   0.224   6.239   2.732
  363DOPC   C4B 4350  19.975   6.317   3.170
  364DOPC   NC3 4351  13.299   6.475   1.033
  364DOPC   PO4 4352  13.383   6.858   1.122
  364DOPC   GL1 4353  13.276   6.842   1.538
  364DOPC   GL2 4354  13.194   6.557   1.519
  364DOPC   C1A 4355  13.423   6.943   1.964
  364DOPC   D2A 4356  13.588   7.144   2.411
  364DOPC   C3A 4357  13.759   7.043   2.856
  364DOPC   C4A 4358  13.704   6.979   3.357
  364DOPC   C1B 4359  13.091   6.448   1.954
  364DOPC   D2B 4360  13.184   6.275   2.438
  364DOPC   C3B 4361  13.254   6.322   2.926
  364DOPC   C4B 4362  13.239   6.358   3.439
  365DOPC   NC3 4363   9.621   3.982   1.304
  365DOPC   PO4 4364   9.927   4.233   1.217
  365DOPC   GL1 4365   9.878   4.180   1.650
  365DOPC   GL2 4366   9.844   4.486   1.663
  365DOPC   C1A 4367   9.667   3.948   1.978
  365DOPC   D2A 4368   9.605   3.716   2.418
  365DOPC   C3A 4369   9.611   3.891   2.851
  365DOPC   C4A 4370   9.644   4.142   3.278
  365DOPC   C1B 4371   9.540   4.437   1.996
  365DOPC   D2B 4372   9.360   4.202   2.415
  365DOPC   C3B 4373   9.543   4.410   2.813
  365DOPC   C4B 4374   9.869   4.667   3.112
  366DOPC   NC3 4375  19.684   2.870   1.237
  366DOPC   PO4 4376  19.660   2.475   1.193
  366DOPC   GL1 4377  19.624   2.580   1.600
  366DOPC   GL2 4378  19.324   2.636   1.530
  366DOPC   C1A 4379  19.780   2.892   1.890
  366DOPC   D2A 4380  19.783   3.169   2.318
  366DOPC   C3A 4381  19.785   3.110   2.788
  366DOPC   C4A 4382  19.882   2.832   3.188
  366DOPC   C1B 4383  19.318   2.675   1.959
  366DOPC   D2B 4384  19.388   2.831   2.432
  366DOPC   C3B 4385  19.474   2.672   2.873
  366DOPC   C4B 4386  19.481   2.547   3.355
  367DOPC   NC3 4387   0.149   3.328   1.268
  367DOPC   PO4 4388   0.536   3.236   1.213
  367DOPC   GL1 4389   0.514   3.599   1.433
  367DOPC   GL2 4390   0.752   3.528   1.608
  367DOPC   C1A 4391   0.224   3.584   1.763
  367DOPC   D2A 4392   0.198   3.533   2.267
  367DOPC   C3A 4393   0.051   3.570   2.718
  367DOPC   C4A 4394   0.001   3.463   3.207
  367DOPC   C1B 4395   0.656   3.718   2.009
  367DOPC   D2B 4396   0.486   3.968   2.412
  367DOPC   C3B 4397   0.548   3.723   2.810
  367DOPC   C4B 4398   0.514   3.354   3.150
  368DOPC   NC3 4399   2.592   8.090   1.145
  368DOPC   PO4 4400   2.936   8.098   1.339
  368DOPC   GL1 4401   2.666   8.015   1.639
  368DOPC   GL2 4402   2.484   8.257   1.559
  368DOPC   C1A 4403   2.816   8.024   2.055
  368DOPC   D2A 4404   2.975   8.023   2.537
  368DOPC   C3A 4405   2.965   8.075   3.010
  368DOPC   C4A 4406   2.730   8.430   3.277
  368DOPC   C1B 4407   2.527   8.442   1.946
  368DOPC   D2B 4408   2.646   8.439   2.421
  368DOPC   C3B 4409   2.528   8.216   2.810
  368DOPC   C4B 4410   2.470   7.972   3.241
  369DOPC   NC3 4411  12.297   4.397   1.007
  369DOPC   PO4 4412  11.914   4.446   1.112
  369DOPC   GL1 4413  11.985   4.146   1.422
  369DOPC   GL2 4414  11.884   4.382   1.595
  369DOPC   C1A 4415  12.272   4.034   1.757
  369DOPC   D2A 4416  12.343   3.797   2.198
  369DOPC   C3A 4417  12.296   3.887   2.667
  369DOPC   C4A 4418  12.378   3.933   3.163
  369DOPC   C1B 4419  12.146   4.545   1.926
  369DOPC   D2B 4420  12.234   4.745   2.384
  369DOPC   C3B 4421  12.130   4.474   2.763
  369DOPC   C4B 4422  11.938   4.232   3.161
  370DOPC   NC3 4423  16.587   9.070   1.020
  370DOPC   PO4 4424  16.367   9.357   1.198
  370DOPC   GL1 4425  16.347   9.188   1.586
  370DOPC   GL2 4426  16.567   8.980   1.505
  370DOPC   C1A 4427  16.419   9.152   2.015
  370DOPC   D2A 4428  16.662   8.956   2.401
  370DOPC   C3A 4429  16.516   9.035   2.829
  370DOPC   C4A 4430  16.334   9.135   3.265
  370DOPC   C1B 4431  16.765   8.765   1.858
  370DOPC   D2B 4432  16.830   8.475   2.273
  370DOPC   C3B 4433  16.759   8.576   2.746
  370DOPC   C4B 4434  16.704   8.741   3.227
  371DOPC   NC3 4435  17.254   8.353   1.150
  371DOPC   PO4 4436  17.646   8.380   1.138
  371DOPC   GL1 4437  17.897   8.543   1.441
  371DOPC   GL2 4438  17.683   8.784   1.414
  371DOPC   C1A 4439  17.807   8.570   1.870
  371DOPC   D2A 4440  17.624   8.780   2.301
  371DOPC   C3A 4441  17.651   8.763   2.767
  371DOPC   C4A 4442  17.680   8.671   3.249
  371DOPC   C1B 4443  17.445   8.911   1.790
  371DOPC   D2B 4444  17.137   8.914   2.198
  371DOPC   C3B 4445  17.207   9.008   2.660
  371DOPC   C4B 4446  17.375   9.080   3.131
  372DOPC   NC3 4447   8.009   6.034   1.195
  372DOPC   PO4 4448   7.760   6.307   1.357
  372DOPC   GL1 4449   7.840   6.223   1.769
  372DOPC   GL2 4450   8.119   6.138   1.668
  372DOPC   C1A 4451   7.766   5.999   2.147
  372DOPC   D2A 4452   7.773   5.721   2.573
  372DOPC   C3A 4453   7.760   5.820   3.037
  372DOPC   C4A 4454   7.665   6.059   3.457
  372DOPC   C1B 4455   8.252   5.878   1.989
  372DOPC   D2B 4456   8.242   5.591   2.396
  372DOPC   C3B 4457   8.214   5.726   2.845
  372DOPC   C4B 4458   8.189   5.932   3.303
  373DOPC   NC3 4459  12.381   5.176   1.344
  373DOPC   PO4 4460  12.029   5.331   1.425
  373DOPC   GL1 4461  12.240   5.293   1.806
  373DOPC   GL2 4462  12.179   5.000   1.745
  373DOPC   C1A 4463  12.245   5.257   2.257
  373DOPC   D2A 4464  12.165   5.099   2.731
  373DOPC   C3A 4465  12.202   5.104   3.200
  373DOPC   C4A 4466  12.121   5.229   3.680
  373DOPC   C1B 4467  11.885   4.969   2.065
  373DOPC   D2B 4468  11.701   4.947   2.532
  373DOPC   C3B 4469  11.808   4.812   2.986
  373DOPC   C4B 4470  11.955   4.693   3.448
  374DOPC   NC3 4471   6.554   7.439   1.023
  374DOPC   PO4 4472   6.174   7.557   1.133
  374DOPC   GL1 4473   6.338   7.573   1.503
  374DOPC   GL2 4474   6.566   7.402   1.494
  374DOPC   C1A 4475   6.291   7.525   1.927
  374DOPC   D2A 4476   6.370   7.405   2.395
  374DOPC   C3A 4477   6.189   7.414   2.823
  374DOPC   C4A 4478   6.060   7.384   3.299
  374DOPC   C1B 4479   6.735   7.281   1.894
  374DOPC   D2B 4480   6.784   7.056   2.336
  374DOPC   C3B 4481   6.691   7.222   2.752
  374DOPC   C4B 4482   6.573   7.394   3.182
  375DOPC   NC3 4483   2.782   9.680   1.143
  375DOPC   PO4 4484   2.471   9.509   1.345
  375DOPC   GL1 4485   2.546   9.387   1.736
  375DOPC   GL2 4486   2.827   9.261   1.676
  375DOPC   C1A 4487   2.456   9.640   2.111
  375DOPC   D2A 4488   2.335   9.689   2.605
  375DOPC   C3A 4489   2.284   9.887   3.041
  375DOPC   C4A 4490   2.360   0.101   3.485
  375DOPC   C1B 4491   2.923   9.400   2.092
  375DOPC   D2B 4492   2.830   9.764   2.439
  375DOPC   C3B 4493   2.755   9.755   2.906
  375DOPC   C4B 4494   2.609   9.653   3.372
  376DOPC   NC3 4495  15.919   1.968   0.969
  376DOPC   PO4 4496  16.145   1.763   1.234
  376DOPC   GL1 4497  15.789   1.813   1.510
  376DOPC   GL2 4498  15.819   2.109   1.423
  376DOPC   C1A 4499  15.909   1.802   1.955
  376DOPC   D2A 4500  16.159   1.733   2.402
  376DOPC   C3A 4501  15.909   1.841   2.800
  376DOPC   C4A 4502  15.667   1.972   3.222
  376DOPC   C1B 4503  15.812   2.284   1.832
  376DOPC   D2B 4504  15.729   2.392   2.326
  376DOPC   C3B 4505  15.733   2.352   2.792
  376DOPC   C4B 4506  15.750   2.513   3.243
  377DOPC   NC3 4507  15.627   0.544   1.322
  377DOPC   PO4 4508  15.713   0.933   1.260
  377DOPC   GL1 4509  16.041   0.968   1.555
  377DOPC   GL2 4510  16.010   0.638   1.580
  377DOPC   C1A 4511  16.096   0.907   1.991
  377DOPC   D2A 4512  16.234   0.669   2.410
  377DOPC   C3A 4513  16.195   0.835   2.840
  377DOPC   C4A 4514  16.136   0.989   3.303
  377DOPC   C1B 4515  16.189   0.387   1.940
  377DOPC   D2B 4516  16.346   0.158   2.367
  377DOPC   C3B 4517  16.237   0.273   2.815
  377DOPC   C4B 4518  16.003   0.450   3.216
  378DOPC   NC3 4519  14.905   0.294   1.237
  378DOPC   PO4 4520  15.263   0.211   1.395
  378DOPC   GL1 4521  15.308   0.150   1.814
  378DOPC   GL2 4522  15.013   0.066   1.870
  378DOPC   C1A 4523  15.521   0.055   2.205
  378DOPC   D2A 4524  15.589   9.952   2.695
  378DOPC   C3A 4525  15.449   0.014   3.148
  378DOPC   C4A 4526  15.335   0.076   3.637
  378DOPC   C1B 4527  15.014   9.907   2.307
  378DOPC   D2B 4528  14.997   9.926   2.828
  378DOPC   C3B 4529  14.944   0.134   3.267
  378DOPC   C4B 4530  14.937   0.426   3.682
  379DOPC   NC3 4531  10.498   3.603   0.906
  379DOPC   PO4 4532  10.772   3.727   1.169
  379DOPC   GL1 4533  10.638   3.917   1.514
  379DOPC   GL2 4534  10.374   3.747   1.482
  379DOPC   C1A 4535  10.726   3.774   1.919
  379DOPC   D2A 4536  10.663   3.603   2.379
  379DOPC   C3A 4537  10.619   3.677   2.843
  379DOPC   C4A 4538  10.495   3.852   3.299
  379DOPC   C1B 4539  10.366   3.440   1.823
  379DOPC   D2B 4540  10.351   3.195   2.263
  379DOPC   C3B 4541  10.347   3.243   2.730
  379DOPC   C4B 4542  10.316   3.404   3.193
  380DOPC   NC3 4543  12.574   2.420   1.129
  380DOPC   PO4 4544  12.412   2.068   1.210
  380DOPC   GL1 4545  12.531   1.835   1.559
  380DOPC   GL2 4546  12.818   1.868   1.470
  380DOPC   C1A 4547  12.588   1.927   1.986
  380DOPC   D2A 4548  12.703   1.902   2.474
  380DOPC   C3A 4549  12.734   2.050   2.920
  380DOPC   C4A 4550  12.646   2.291   3.334
  380DOPC   C1B 4551  13.047   1.813   1.858
  380DOPC   D2B 4552  13.191   1.858   2.340
  380DOPC   C3B 4553  13.132   1.692   2.788
  380DOPC   C4B 4554  13.262   1.568   3.260
  381DOPC   NC3 4555  16.479   8.145   1.371
  381DOPC   PO4 4556  16.787   8.211   1.121
  381DOPC   GL1 4557  17.034   8.148   1.502
  381DOPC   GL2 4558  16.823   8.363   1.599
  381DOPC   C1A 4559  17.032   8.067   1.932
  381DOPC   D2A 4560  16.806   7.860   2.330
  381DOPC   C3A 4561  16.858   8.066   2.750
  381DOPC   C4A 4562  16.824   8.243   3.216
  381DOPC   C1B 4563  16.547   8.201   1.938
  381DOPC   D2B 4564  16.419   8.212   2.438
  381DOPC   C3B 4565  16.345   7.990   2.854
  381DOPC   C4B 4566  16.118   7.905   3.289
  382DOPC   NC3 4567  14.178   5.211   1.032
  382DOPC   PO4 4568  14.458   4.984   1.217
  382DOPC   GL1 4569  14.260   5.016   1.576
  382DOPC   GL2 4570  14.043   5.220   1.495
  382DOPC   C1A 4571  14.280   4.871   1.997
  382DOPC   D2A 4572  14.284   4.668   2.460
  382DOPC   C3A 4573  14.513   4.686   2.878
  382DOPC   C4A 4574  14.684   4.798   3.331
  382DOPC   C1B 4575  13.978   5.286   1.933
  382DOPC   D2B 4576  14.128   5.180   2.407
  382DOPC   C3B 4577  14.030   5.224   2.872
  382DOPC   C4B 4578  13.949   5.335   3.356
  383DOPC   NC3 4579   9.956   4.758   1.218
  383DOPC   PO4 4580  10.133   5.121   1.174
  383DOPC   GL1 4581  10.065   5.138   1.603
  383DOPC   GL2 4582   9.882   5.368   1.587
  383DOPC   C1A 4583  10.060   4.971   2.040
  383DOPC   D2A 4584  10.153   4.808   2.513
  383DOPC   C3A 4585  10.188   5.052   2.909
  383DOPC   C4A 4586   9.990   5.246   3.311
  383DOPC   C1B 4587   9.926   5.461   2.021
  383DOPC   D2B 4588  10.086   5.340   2.485
  383DOPC   C3B 4589   9.755   5.298   2.828
  383DOPC   C4B 4590   9.477   5.063   3.172
  384DOPC   NC3 4591  15.935   7.320   1.165
  384DOPC   PO4 4592  15.786   7.676   1.271
  384DOPC   GL1 4593  16.011   7.656   1.703
  384DOPC   GL2 4594  15.858   7.415   1.628
  384DOPC   C1A 4595  15.978   7.717   2.163
  384DOPC   D2A 4596  15.899   7.716   2.676
  384DOPC   C3A 4597  15.789   7.561   3.119
  384DOPC   C4A 4598  15.737   7.435   3.605
  384DOPC   C1B 4599  15.592   7.452   1.963
  384DOPC   D2B 4600  15.427   7.637   2.394
  384DOPC   C3B 4601  15.402   7.471   2.823
  384DOPC   C4B 4602  15.370   7.286   3.289
  385DOPC   NC3 4603   9.138   1.083   1.369
  385DOPC   PO4 4604   9.476   1.265   1.284
  385DOPC   GL1 4605   9.272   1.357   1.711
  385DOPC   GL2 4606   9.454   1.107   1.745
  385DOPC   C1A 4607   9.369   1.484   2.108
  385DOPC   D2A 4608   9.551   1.441   2.564
  385DOPC   C3A 4609   9.531   1.498   3.027
  385DOPC   C4A 4610   9.609   1.497   3.508
  385DOPC   C1B 4611   9.654   1.064   2.146
  385DOPC   D2B 4612   9.724   0.942   2.636
  385DOPC   C3B 4613   9.784   1.061   3.103
  385DOPC   C4B 4614   9.921   1.110   3.584
  386DOPC   NC3 4615  14.958   8.228   1.260
  386DOPC   PO4 4616  14.630   8.468   1.246
  386DOPC   GL1 4617  14.694   8.664   1.624
  386DOPC   GL2 4618  14.988   8.619   1.554
  386DOPC   C1A 4619  14.704   8.460   2.015
  386DOPC   D2A 4620  14.629   8.139   2.397
  386DOPC   C3A 4621  14.623   8.304   2.832
  386DOPC   C4A 4622  14.631   8.489   3.287
  386DOPC   C1B 4623  15.135   8.280   1.803
  386DOPC   D2B 4624  15.140   8.096   2.267
  386DOPC   C3B 4625  15.118   8.123   2.738
  386DOPC   C4B 4626  15.090   8.156   3.237
  387DOPC   NC3 4627  15.019   7.359   1.010
  387DOPC   PO4 4628  15.283   7.590   1.196
  387DOPC   GL1 4629  15.086   7.546   1.568
  387DOPC   GL2 4630  15.141   7.240   1.557
  387DOPC   C1A 4631  15.115   7.670   1.995
  387DOPC   D2A 4632  14.902   7.692   2.472
  387DOPC   C3A 4633  14.955   7.677   2.954
  387DOPC   C4A 4634  14.973   7.631   3.453
  387DOPC   C1B 4635  15.178   7.167   1.996
  387DOPC   D2B 4636  15.094   7.215   2.490
  387DOPC   C3B 4637  15.017   7.142   2.951
  387DOPC   C4B 4638  14.887   7.062   3.405
  388DOPC   NC3 4639  13.604   5.120   1.287
  388DOPC   PO4 4640  13.516   4.773   1.109
  388DOPC   GL1 4641  13.610   4.734   1.573
  388DOPC   GL2 4642  13.356   4.895   1.616
  388DOPC   C1A 4643  13.709   4.861   2.022
  388DOPC   D2A 4644  13.754   4.850   2.538
  388DOPC   C3A 4645  13.631   4.900   3.005
  388DOPC   C4A 4646  13.655   4.941   3.501
  388DOPC   C1B 4647  13.370   5.219   1.931
  388DOPC   D2B 4648  13.614   5.315   2.371
  388DOPC   C3B 4649  13.448   5.341   2.822
  388DOPC   C4B 4650  13.271   5.178   3.271
  389DOPC   NC3 4651  19.487   1.177   1.186
  389DOPC   PO4 4652  19.875   1.250   1.247
  389DOPC   GL1 4653  19.693   1.074   1.609
  389DOPC   GL2 4654  19.477   1.305   1.626
  389DOPC   C1A 4655  19.875   0.947   2.002
  389DOPC   D2A 4656  19.973   0.745   2.456
  389DOPC   C3A 4657  19.827   0.871   2.903
  389DOPC   C4A 4658  19.637   1.110   3.307
  389DOPC   C1B 4659  19.629   1.405   2.021
  389DOPC   D2B 4660  19.852   1.253   2.445
  389DOPC   C3B 4661  19.626   1.369   2.837
  389DOPC   C4B 4662  19.242   1.449   3.143
  390DOPC   NC3 4663  13.301   4.355   1.279
  390DOPC   PO4 4664  13.050   4.040   1.277
  390DOPC   GL1 4665  13.143   4.134   1.705
  390DOPC   GL2 4666  13.025   4.430   1.643
  390DOPC   C1A 4667  13.051   4.265   2.127
  390DOPC   D2A 4668  12.876   4.569   2.474
  390DOPC   C3A 4669  13.032   4.504   2.910
  390DOPC   C4A 4670  13.290   4.608   3.318
  390DOPC   C1B 4671  12.647   4.428   1.882
  390DOPC   D2B 4672  12.442   4.297   2.334
  390DOPC   C3B 4673  12.602   4.266   2.797
  390DOPC   C4B 4674  12.829   4.192   3.253
  391DOPC   NC3 4675   3.688   5.674   1.181
  391DOPC   PO4 4676   3.781   6.037   1.346
  391DOPC   GL1 4677   3.891   5.845   1.744
  391DOPC   GL2 4678   3.773   5.585   1.639
  391DOPC   C1A 4679   3.814   5.847   2.195
  391DOPC   D2A 4680   3.561   5.921   2.633
  391DOPC   C3A 4681   3.569   6.020   3.104
  391DOPC   C4A 4682   3.693   6.027   3.603
  391DOPC   C1B 4683   3.488   5.485   1.975
  391DOPC   D2B 4684   3.428   5.418   2.484
  391DOPC   C3B 4685   3.451   5.527   2.950
  391DOPC   C4B 4686   3.429   5.637   3.429
  392DOPC   NC3 4687   6.397   7.981   1.252
  392DOPC   PO4 4688   6.748   7.804   1.350
  392DOPC   GL1 4689   6.676   7.736   1.780
  392DOPC   GL2 4690   6.453   7.950   1.737
  392DOPC   C1A 4691   6.739   7.706   2.233
  392DOPC   D2A 4692   6.609   7.722   2.740
  392DOPC   C3A 4693   6.341   7.836   3.123
  392DOPC   C4A 4694   6.243   8.024   3.573
  392DOPC   C1B 4695   6.672   8.202   2.028
  392DOPC   D2B 4696   6.725   8.171   2.533
  392DOPC   C3B 4697   6.655   8.252   2.999
  392DOPC   C4B 4698   6.555   8.422   3.458
  393DOPC   NC3 4699  11.713   5.190   1.076
  393DOPC   PO4 4700  11.567   5.528   1.245
  393DOPC   GL1 4701  11.543   5.585   1.673
  393DOPC   GL2 4702  11.661   5.305   1.728
  393DOPC   C1A 4703  11.326   5.653   2.060
  393DOPC   D2A 4704  11.340   5.483   2.541
  393DOPC   C3A 4705  11.536   5.248   2.909
  393DOPC   C4A 4706  11.701   5.176   3.369
  393DOPC   C1B 4707  11.418   5.163   2.092
  393DOPC   D2B 4708  11.083   5.021   2.442
  393DOPC   C3B 4709  11.048   5.116   2.904
  393DOPC   C4B 4710  11.157   5.170   3.382
  394DOPC   NC3 4711  18.124   8.241   1.089
  394DOPC   PO4 4712  17.999   8.004   1.385
  394DOPC   GL1 4713  18.211   8.077   1.751
  394DOPC   GL2 4714  18.359   7.814   1.807
  394DOPC   C1A 4715  18.035   8.214   2.134
  394DOPC   D2A 4716  17.722   8.323   2.514
  394DOPC   C3A 4717  17.840   8.262   2.967
  394DOPC   C4A 4718  18.064   8.365   3.409
  394DOPC   C1B 4719  18.303   7.803   2.279
  394DOPC   D2B 4720  18.244   8.178   2.608
  394DOPC   C3B 4721  18.322   8.077   3.050
  394DOPC   C4B 4722  18.365   7.906   3.505
  395DOPC   NC3 4723   1.643   4.382   1.324
  395DOPC   PO4 4724   1.842   4.029   1.360
  395DOPC   GL1 4725   2.206   4.205   1.493
  395DOPC   GL2 4726   2.109   4.472   1.388
  395DOPC   C1A 4727   2.140   4.232   1.935
  395DOPC   D2A 4728   2.050   4.209   2.418
  395DOPC   C3A 4729   2.037   4.190   2.885
  395DOPC   C4A 4730   1.831   4.321   3.299
  395DOPC   C1B 4731   2.264   4.685   1.733
  395DOPC   D2B 4732   2.301   4.671   2.226
  395DOPC   C3B 4733   2.188   4.648   2.675
  395DOPC   C4B 4734   2.218   4.625   3.166
  396DOPC   NC3 4735   9.713   2.976   1.089
  396DOPC   PO4 4736   9.332   2.986   1.208
  396DOPC   GL1 4737   9.278   3.189   1.592
  396DOPC   GL2 4738   9.573   3.220   1.635
  396DOPC   C1A 4739   9.131   2.997   1.979
  396DOPC   D2A 4740   9.024   2.862   2.456
  396DOPC   C3A 4741   9.198   2.936   2.890
  396DOPC   C4A 4742   9.369   3.123   3.317
  396DOPC   C1B 4743   9.626   3.056   2.062
  396DOPC   D2B 4744   9.577   2.867   2.537
  396DOPC   C3B 4745   9.737   2.937   2.982
  396DOPC   C4B 4746   9.867   2.824   3.451
  397DOPC   NC3 4747  12.929   9.663   1.282
  397DOPC   PO4 4748  12.937   9.294   1.434
  397DOPC   GL1 4749  12.749   9.345   1.761
  397DOPC   GL2 4750  12.694   9.645   1.721
  397DOPC   C1A 4751  13.010   9.378   2.089
  397DOPC   D2A 4752  13.196   9.440   2.527
  397DOPC   C3A 4753  12.826   9.357   2.801
  397DOPC   C4A 4754  12.479   9.245   3.135
  397DOPC   C1B 4755  12.766   9.814   2.140
  397DOPC   D2B 4756  12.871   9.836   2.636
  397DOPC   C3B 4757  12.731   9.781   3.104
  397DOPC   C4B 4758  12.558   9.925   3.561
  398DOPC   NC3 4759   3.656   8.829   1.204
  398DOPC   PO4 4760   3.983   8.841   1.420
  398DOPC   GL1 4761   3.745   8.879   1.753
  398DOPC   GL2 4762   3.464   8.899   1.622
  398DOPC   C1A 4763   3.735   8.957   2.193
  398DOPC   D2A 4764   3.745   9.041   2.681
  398DOPC   C3A 4765   3.687   8.768   3.054
  398DOPC   C4A 4766   3.611   8.493   3.470
  398DOPC   C1B 4767   3.212   8.962   1.976
  398DOPC   D2B 4768   3.016   8.992   2.442
  398DOPC   C3B 4769   3.238   8.971   2.870
  398DOPC   C4B 4770   3.367   8.994   3.358
  399DOPC   NC3 4771   7.318   1.656   0.907
  399DOPC   PO4 4772   7.403   1.973   1.136
  399DOPC   GL1 4773   7.634   2.027   1.475
  399DOPC   GL2 4774   7.410   2.223   1.593
  399DOPC   C1A 4775   7.502   1.756   1.777
  399DOPC   D2A 4776   7.379   1.724   2.250
  399DOPC   C3A 4777   7.450   1.720   2.710
  399DOPC   C4A 4778   7.430   1.684   3.199
  399DOPC   C1B 4779   7.274   2.162   2.020
  399DOPC   D2B 4780   7.132   2.115   2.504
  399DOPC   C3B 4781   7.248   2.119   2.963
  399DOPC   C4B 4782   7.366   2.125   3.452
  400DOPC   NC3 4783   8.126   2.547   1.122
  400DOPC   PO4 4784   8.001   2.843   1.366
  400DOPC   GL1 4785   7.938   2.944   1.815
  400DOPC   GL2 4786   7.923   2.649   1.789
  400DOPC   C1A 4787   7.872   2.832   2.246
  400DOPC   D2A 4788   7.955   2.517   2.623
  400DOPC   C3A 4789   7.949   2.847   2.951
  400DOPC   C4A 4790   7.985   3.109   3.359
  400DOPC   C1B 4791   8.191   2.473   2.076
  400DOPC   D2B 4792   8.376   2.250   2.478
  400DOPC   C3B 4793   8.292   2.289   2.946
  400DOPC   C4B 4794   7.961   2.457   3.278
  401DOPC   NC3 4795  12.036   8.347   1.112
  401DOPC   PO4 4796  12.335   8.479   1.333
  401DOPC   GL1 4797  12.284   8.259   1.659
  401DOPC   GL2 4798  11.984   8.209   1.614
  401DOPC   C1A 4799  12.246   8.249   2.082
  401DOPC   D2A 4800  12.026   7.954   2.425
  401DOPC   C3A 4801  12.188   8.206   2.776
  401DOPC   C4A 4802  12.106   8.282   3.249
  401DOPC   C1B 4803  11.775   8.089   1.995
  401DOPC   D2B 4804  11.532   8.058   2.450
  401DOPC   C3B 4805  11.743   7.917   2.863
  401DOPC   C4B 4806  11.876   7.832   3.341
  402DOPC   NC3 4807   4.305   6.130   1.240
  402DOPC   PO4 4808   4.196   5.738   1.263
  402DOPC   GL1 4809   4.306   5.909   1.644
  402DOPC   GL2 4810   4.584   5.928   1.571
  402DOPC   C1A 4811   4.205   6.128   2.009
  402DOPC   D2A 4812   4.143   6.288   2.480
  402DOPC   C3A 4813   4.030   5.999   2.851
  402DOPC   C4A 4814   3.944   5.716   3.260
  402DOPC   C1B 4815   4.691   5.941   1.984
  402DOPC   D2B 4816   4.673   6.202   2.408
  402DOPC   C3B 4817   4.508   6.174   2.841
  402DOPC   C4B 4818   4.313   6.107   3.287
  403DOPC   NC3 4819  14.865   1.799   1.241
  403DOPC   PO4 4820  14.979   2.171   1.332
  403DOPC   GL1 4821  15.178   1.947   1.573
  403DOPC   GL2 4822  15.424   2.097   1.626
  403DOPC   C1A 4823  14.949   1.866   1.931
  403DOPC   D2A 4824  14.867   2.033   2.386
  403DOPC   C3A 4825  14.813   1.944   2.838
  403DOPC   C4A 4826  14.654   1.796   3.284
  403DOPC   C1B 4827  15.395   2.117   2.072
  403DOPC   D2B 4828  15.337   2.111   2.582
  403DOPC   C3B 4829  15.260   2.229   3.041
  403DOPC   C4B 4830  15.349   2.366   3.519
  404DOPC   NC3 4831   6.790   3.500   1.218
  404DOPC   PO4 4832   7.028   3.719   1.455
  404DOPC   GL1 4833   6.707   3.680   1.701
  404DOPC   GL2 4834   6.460   3.640   1.518
  404DOPC   C1A 4835   6.679   3.477   2.115
  404DOPC   D2A 4836   6.666   3.099   2.461
  404DOPC   C3A 4837   6.587   3.273   2.895
  404DOPC   C4A 4838   6.742   3.576   3.255
  404DOPC   C1B 4839   6.249   3.669   1.901
  404DOPC   D2B 4840   6.273   3.794   2.390
  404DOPC   C3B 4841   6.272   3.708   2.856
  404DOPC   C4B 4842   6.243   3.532   3.322
  405DOPC   NC3 4843   5.121   5.384   1.208
  405DOPC   PO4 4844   4.902   5.098   1.382
  405DOPC   GL1 4845   4.858   5.399   1.707
  405DOPC   GL2 4846   5.181   5.373   1.683
  405DOPC   C1A 4847   4.751   5.387   2.157
  405DOPC   D2A 4848   4.782   5.316   2.675
  405DOPC   C3A 4849   4.707   5.204   3.144
  405DOPC   C4A 4850   5.001   5.149   3.556
  405DOPC   C1B 4851   5.227   5.165   2.083
  405DOPC   D2B 4852   5.193   4.921   2.536
  405DOPC   C3B 4853   5.178   5.076   2.982
  405DOPC   C4B 4854   5.111   5.510   3.192
  406DOPC   NC3 4855   7.175   0.284   1.259
  406DOPC   PO4 4856   7.400   0.615   1.214
  406DOPC   GL1 4857   7.272   0.712   1.628
  406DOPC   GL2 4858   7.325   0.400   1.705
  406DOPC   C1A 4859   7.034   0.966   1.931
  406DOPC   D2A 4860   6.826   1.129   2.375
  406DOPC   C3A 4861   6.997   0.945   2.778
  406DOPC   C4A 4862   7.171   0.607   3.104
  406DOPC   C1B 4863   7.331   0.327   2.167
  406DOPC   D2B 4864   7.259   0.259   2.670
  406DOPC   C3B 4865   7.401   0.148   3.113
  406DOPC   C4B 4866   7.427   0.021   3.592
  407DOPC   NC3 4867  17.688   7.604   1.275
  407DOPC   PO4 4868  17.459   7.932   1.354
  407DOPC   GL1 4869  17.636   8.210   1.602
  407DOPC   GL2 4870  17.425   8.420   1.597
  407DOPC   C1A 4871  17.565   8.044   2.001
  407DOPC   D2A 4872  17.287   8.034   2.405
  407DOPC   C3A 4873  17.363   8.101   2.851
  407DOPC   C4A 4874  17.436   8.171   3.326
  407DOPC   C1B 4875  17.314   8.473   2.042
  407DOPC   D2B 4876  17.242   8.516   2.552
  407DOPC   C3B 4877  17.211   8.573   3.026
  407DOPC   C4B 4878  17.119   8.535   3.519
  408DOPC   NC3 4879   4.982   1.863   1.083
  408DOPC   PO4 4880   4.952   1.482   1.192
  408DOPC   GL1 4881   4.915   1.534   1.629
  408DOPC   GL2 4882   4.840   1.820   1.543
  408DOPC   C1A 4883   5.066   1.703   2.012
  408DOPC   D2A 4884   5.106   1.879   2.476
  408DOPC   C3A 4885   5.138   1.822   2.939
  408DOPC   C4A 4886   5.012   1.715   3.405
  408DOPC   C1B 4887   4.698   2.042   1.893
  408DOPC   D2B 4888   4.613   2.071   2.385
  408DOPC   C3B 4889   4.752   2.152   2.824
  408DOPC   C4B 4890   4.915   2.230   3.287
  409DOPC   NC3 4891   3.271   4.825   1.211
  409DOPC   PO4 4892   3.636   4.927   1.331
  409DOPC   GL1 4893   3.567   5.045   1.761
  409DOPC   GL2 4894   3.859   5.151   1.749
  409DOPC   C1A 4895   3.511   5.008   2.211
  409DOPC   D2A 4896   3.554   4.960   2.725
  409DOPC   C3A 4897   3.541   4.794   3.179
  409DOPC   C4A 4898   3.518   4.817   3.693
  409DOPC   C1B 4899   3.918   5.323   2.155
  409DOPC   D2B 4900   3.924   5.538   2.602
  409DOPC   C3B 4901   3.887   5.279   2.979
  409DOPC   C4B 4902   3.715   5.213   3.421
  410DOPC   NC3 4903  16.976   0.366   0.959
  410DOPC   PO4 4904  16.925   0.634   1.257
  410DOPC   GL1 4905  17.151   0.563   1.614
  410DOPC   GL2 4906  17.257   0.849   1.631
  410DOPC   C1A 4907  17.129   0.391   2.032
  410DOPC   D2A 4908  17.137   0.225   2.524
  410DOPC   C3A 4909  17.280   0.281   2.991
  410DOPC   C4A 4910  17.255   0.347   3.496
  410DOPC   C1B 4911  17.423   0.899   2.059
  410DOPC   D2B 4912  17.697   0.831   2.493
  410DOPC   C3B 4913  17.646   0.764   2.966
  410DOPC   C4B 4914  17.509   0.795   3.443
  411DOPC   NC3 4915  19.051   8.773   1.072
  411DOPC   PO4 4916  19.112   8.434   1.278
  411DOPC   GL1 4917  18.758   8.503   1.478
  411DOPC   GL2 4918  18.758   8.810   1.473
  411DOPC   C1A 4919  18.795   8.543   1.909
  411DOPC   D2A 4920  18.643   8.622   2.396
  411DOPC   C3A 4921  18.618   8.498   2.850
  411DOPC   C4A 4922  18.578   8.425   3.334
  411DOPC   C1B 4923  18.626   9.004   1.873
  411DOPC   D2B 4924  18.418   9.088   2.333
  411DOPC   C3B 4925  18.527   9.003   2.792
  411DOPC   C4B 4926  18.749   8.894   3.229
  412DOPC   NC3 4927  16.484   4.153   1.173
  412DOPC   PO4 4928  16.848   4.189   1.341
  412DOPC   GL1 4929  16.709   4.212   1.768
  412DOPC   GL2 4930  16.626   3.917   1.748
  412DOPC   C1A 4931  16.699   4.334   2.212
  412DOPC   D2A 4932  16.592   4.386   2.710
  412DOPC   C3A 4933  16.752   4.371   3.160
  412DOPC   C4A 4934  16.885   4.262   3.634
  412DOPC   C1B 4935  16.475   3.714   2.109
  412DOPC   D2B 4936  16.204   3.820   2.520
  412DOPC   C3B 4937  16.361   3.966   2.948
  412DOPC   C4B 4938  16.463   4.064   3.429
  413DOPC   NC3 4939   6.645   1.065   1.028
  413DOPC   PO4 4940   6.401   0.890   1.293
  413DOPC   GL1 4941   6.685   1.088   1.529
  413DOPC   GL2 4942   6.647   1.364   1.384
  413DOPC   C1A 4943   6.533   1.094   1.943
  413DOPC   D2A 4944   6.313   1.059   2.389
  413DOPC   C3A 4945   6.484   1.056   2.818
  413DOPC   C4A 4946   6.751   1.050   3.216
  413DOPC   C1B 4947   6.592   1.580   1.745
  413DOPC   D2B 4948   6.501   1.536   2.237
  413DOPC   C3B 4949   6.519   1.541   2.700
  413DOPC   C4B 4950   6.544   1.544   3.191
  414DOPC   NC3 4951   7.987   7.895   1.300
  414DOPC   PO4 4952   8.149   8.235   1.156
  414DOPC   GL1 4953   8.244   8.433   1.537
  414DOPC   GL2 4954   7.982   8.259   1.612
  414DOPC   C1A 4955   8.391   8.330   1.944
  414DOPC   D2A 4956   8.511   8.226   2.426
  414DOPC   C3A 4957   8.447   8.430   2.858
  414DOPC   C4A 4958   8.305   8.608   3.309
  414DOPC   C1B 4959   8.038   7.948   1.934
  414DOPC   D2B 4960   8.146   7.858   2.427
  414DOPC   C3B 4961   8.141   7.994   2.886
  414DOPC   C4B 4962   8.029   8.147   3.353
  415DOPC   NC3 4963   4.282   0.410   1.210
  415DOPC   PO4 4964   4.554   0.686   1.325
  415DOPC   GL1 4965   4.575   0.476   1.699
  415DOPC   GL2 4966   4.454   0.216   1.615
  415DOPC   C1A 4967   4.311   0.530   2.062
  415DOPC   D2A 4968   4.182   0.752   2.500
  415DOPC   C3A 4969   4.385   0.666   2.917
  415DOPC   C4A 4970   4.787   0.753   3.195
  415DOPC   C1B 4971   4.347   9.998   2.012
  415DOPC   D2B 4972   4.314   9.881   2.512
  415DOPC   C3B 4973   4.381   0.106   2.932
  415DOPC   C4B 4974   4.484   0.371   3.345
  416DOPC   NC3 4975  16.695   6.849   1.343
  416DOPC   PO4 4976  16.335   6.997   1.248
  416DOPC   GL1 4977  16.323   6.915   1.651
  416DOPC   GL2 4978  16.346   6.615   1.580
  416DOPC   C1A 4979  16.519   6.966   2.025
  416DOPC   D2A 4980  16.774   6.797   2.413
  416DOPC   C3A 4981  16.592   6.844   2.846
  416DOPC   C4A 4982  16.311   6.901   3.251
  416DOPC   C1B 4983  16.582   6.451   1.921
  416DOPC   D2B 4984  16.810   6.256   2.322
  416DOPC   C3B 4985  16.612   6.330   2.747
  416DOPC   C4B 4986  16.452   6.412   3.216
  417DOPC   NC3 4987   5.036   6.682   1.188
  417DOPC   PO4 4988   5.419   6.633   1.303
  417DOPC   GL1 4989   5.239   6.468   1.621
  417DOPC   GL2 4990   4.949   6.562   1.628
  417DOPC   C1A 4991   5.418   6.636   1.985
  417DOPC   D2A 4992   5.456   6.925   2.394
  417DOPC   C3A 4993   5.361   6.784   2.823
  417DOPC   C4A 4994   5.192   6.584   3.236
  417DOPC   C1B 4995   4.953   6.813   2.008
  417DOPC   D2B 4996   4.938   7.022   2.470
  417DOPC   C3B 4997   4.832   6.776   2.863
  417DOPC   C4B 4998   4.684   6.473   3.237
  418DOPC   NC3 4999  19.758   4.960   1.086
  418DOPC   PO4 5000  19.487   5.253   1.067
  418DOPC   GL1 5001  19.542   5.383   1.500
  418DOPC   GL2 5002  19.541   5.064   1.548
  418DOPC   C1A 5003  19.784   5.475   1.875
  418DOPC   D2A 5004  19.778   5.557   2.377
  418DOPC   C3A 5005  19.680   5.390   2.814
  418DOPC   C4A 5006  19.614   5.340   3.312
  418DOPC   C1B 5007  19.559   5.023   2.006
  418DOPC   D2B 5008  19.436   4.913   2.502
  418DOPC   C3B 5009  19.500   4.941   2.981
  418DOPC   C4B 5010  19.733   4.789   3.404
  419DOPC   NC3 5011   0.167   0.507   1.133
  419DOPC   PO4 5012  19.958   0.755   1.359
  419DOPC   GL1 5013   0.072   0.464   1.612
  419DOPC   GL2 5014   0.379   0.462   1.551
  419DOPC   C1A 5015   0.120   0.461   2.034
  419DOPC   D2A 5016   0.411   0.465   2.434
  419DOPC   C3A 5017   0.232   0.521   2.859
  419DOPC   C4A 5018   0.057   0.582   3.313
  419DOPC   C1B 5019   0.633   0.456   1.936
  419DOPC   D2B 5020   0.872   0.257   2.352
  419DOPC   C3B 5021   0.766   0.338   2.808
  419DOPC   C4B 5022   0.555   0.436   3.254
  420DOPC   NC3 5023   6.253   7.112   1.297
  420DOPC   PO4 5024   6.044   6.778   1.256
  420DOPC   GL1 5025   6.087   6.900   1.680
  420DOPC   GL2 5026   5.795   6.810   1.713
  420DOPC   C1A 5027   6.312   7.000   2.068
  420DOPC   D2A 5028   6.336   6.913   2.573
  420DOPC   C3A 5029   6.184   6.935   3.040
  420DOPC   C4A 5030   6.052   6.914   3.535
  420DOPC   C1B 5031   5.879   6.736   2.143
  420DOPC   D2B 5032   5.870   6.693   2.645
  420DOPC   C3B 5033   5.739   6.472   3.040
  420DOPC   C4B 5034   5.571   6.312   3.487
  421DOPC   NC3 5035   8.986   9.705   1.346
  421DOPC   PO4 5036   9.040   9.307   1.320
  421DOPC   GL1 5037   9.126   9.311   1.715
  421DOPC   GL2 5038   9.085   9.611   1.787
  421DOPC   C1A 5039   9.330   9.233   2.091
  421DOPC   D2A 5040   9.594   9.437   2.457
  421DOPC   C3A 5041   9.496   9.411   2.908
  421DOPC   C4A 5042   9.621   9.445   3.378
  421DOPC   C1B 5043   9.246   9.743   2.198
  421DOPC   D2B 5044   9.464   9.916   2.637
  421DOPC   C3B 5045   9.492   9.907   3.120
  421DOPC   C4B 5046   9.375   9.866   3.619
  422DOPC   NC3 5047  14.142   2.868   0.901
  422DOPC   PO4 5048  14.210   2.588   1.176
  422DOPC   GL1 5049  13.856   2.621   1.461
  422DOPC   GL2 5050  14.019   2.864   1.558
  422DOPC   C1A 5051  13.812   2.501   1.892
  422DOPC   D2A 5052  14.002   2.481   2.359
  422DOPC   C3A 5053  13.943   2.378   2.819
  422DOPC   C4A 5054  14.034   2.525   3.289
  422DOPC   C1B 5055  14.290   2.701   1.885
  422DOPC   D2B 5056  14.572   2.559   2.273
  422DOPC   C3B 5057  14.510   2.698   2.730
  422DOPC   C4B 5058  14.557   2.939   3.179
  423DOPC   NC3 5059  13.283   3.564   1.347
  423DOPC   PO4 5060  13.487   3.873   1.486
  423DOPC   GL1 5061  13.299   3.692   1.811
  423DOPC   GL2 5062  13.534   3.477   1.791
  423DOPC   C1A 5063  13.238   3.805   2.225
  423DOPC   D2A 5064  13.227   4.054   2.659
  423DOPC   C3A 5065  13.307   3.653   2.901
  423DOPC   C4A 5066  13.353   3.178   3.061
  423DOPC   C1B 5067  13.639   3.445   2.226
  423DOPC   D2B 5068  13.741   3.359   2.718
  423DOPC   C3B 5069  13.735   3.531   3.160
  423DOPC   C4B 5070  13.721   3.377   3.637
  424DOPC   NC3 5071  17.994   5.560   0.982
  424DOPC   PO4 5072  17.848   5.761   1.298
  424DOPC   GL1 5073  17.784   5.586   1.685
  424DOPC   GL2 5074  18.080   5.491   1.686
  424DOPC   C1A 5075  17.760   5.729   2.098
  424DOPC   D2A 5076  17.773   5.869   2.569
  424DOPC   C3A 5077  17.818   5.832   3.030
  424DOPC   C4A 5078  17.790   5.988   3.485
  424DOPC   C1B 5079  18.276   5.661   2.064
  424DOPC   D2B 5080  18.320   5.961   2.470
  424DOPC   C3B 5081  18.319   5.908   2.936
  424DOPC   C4B 5082  18.238   5.767   3.403
  425DOPC   NC3 5083  16.009   8.104   1.179
  425DOPC   PO4 5084  16.024   8.422   1.408
  425DOPC   GL1 5085  16.092   8.103   1.675
  425DOPC   GL2 5086  15.787   8.019   1.609
  425DOPC   C1A 5087  16.035   8.231   2.092
  425DOPC   D2A 5088  15.946   8.498   2.508
  425DOPC   C3A 5089  16.053   8.402   2.959
  425DOPC   C4A 5090  16.327   8.369   3.368
  425DOPC   C1B 5091  15.576   8.000   2.010
  425DOPC   D2B 5092  15.597   8.104   2.511
  425DOPC   C3B 5093  15.640   8.078   2.985
  425DOPC   C4B 5094  15.781   8.264   3.432
  426DOPC   NC3 5095   0.399   6.098   1.083
  426DOPC   PO4 5096   0.800   6.107   1.056
  426DOPC   GL1 5097   0.773   6.100   1.508
  426DOPC   GL2 5098   0.539   5.891   1.490
  426DOPC   C1A 5099   0.756   6.141   1.963
  426DOPC   D2A 5100   0.740   5.970   2.462
  426DOPC   C3A 5101   0.749   6.116   2.915
  426DOPC   C4A 5102   0.832   6.198   3.396
  426DOPC   C1B 5103   0.376   5.812   1.921
  426DOPC   D2B 5104   0.248   5.777   2.424
  426DOPC   C3B 5105   0.406   5.749   2.865
  426DOPC   C4B 5106   0.367   5.973   3.312
  427DOPC   NC3 5107   1.041   8.759   1.048
  427DOPC   PO4 5108   1.040   9.035   1.334
  427DOPC   GL1 5109   1.228   8.646   1.463
  427DOPC   GL2 5110   1.414   8.831   1.602
  427DOPC   C1A 5111   1.070   8.520   1.844
  427DOPC   D2A 5112   0.930   8.520   2.326
  427DOPC   C3A 5113   1.056   8.759   2.723
  427DOPC   C4A 5114   1.262   8.888   3.171
  427DOPC   C1B 5115   1.277   8.949   2.023
  427DOPC   D2B 5116   1.069   9.199   2.416
  427DOPC   C3B 5117   0.999   9.254   2.885
  427DOPC   C4B 5118   0.792   9.103   3.305
  428DOPC   NC3 5119   7.833   1.719   1.135
  428DOPC   PO4 5120   8.025   2.069   1.178
  428DOPC   GL1 5121   7.995   2.302   1.532
  428DOPC   GL2 5122   8.238   2.194   1.667
  428DOPC   C1A 5123   7.770   2.212   1.906
  428DOPC   D2A 5124   7.718   2.081   2.402
  428DOPC   C3A 5125   7.797   2.075   2.884
  428DOPC   C4A 5126   7.863   1.966   3.376
  428DOPC   C1B 5127   8.171   1.970   2.084
  428DOPC   D2B 5128   8.144   1.810   2.571
  428DOPC   C3B 5129   8.237   1.777   3.038
  428DOPC   C4B 5130   8.324   1.688   3.519
  429DOPC   NC3 5131   2.455   3.181   1.217
  429DOPC   PO4 5132   2.064   3.234   1.297
  429DOPC   GL1 5133   2.218   3.263   1.729
  429DOPC   GL2 5134   2.155   3.564   1.732
  429DOPC   C1A 5135   2.341   3.251   2.170
  429DOPC   D2A 5136   2.383   3.361   2.664
  429DOPC   C3A 5137   2.778   3.354   2.946
  429DOPC   C4A 5138   2.982   3.234   3.391
  429DOPC   C1B 5139   2.225   3.761   2.149
  429DOPC   D2B 5140   2.354   3.864   2.639
  429DOPC   C3B 5141   2.489   3.756   3.093
  429DOPC   C4B 5142   2.622   3.594   3.558
  430DOPC   NC3 5143  11.441   7.636   1.152
  430DOPC   PO4 5144  11.792   7.572   1.326
  430DOPC   GL1 5145  11.769   7.759   1.690
  430DOPC   GL2 5146  11.469   7.854   1.640
  430DOPC   C1A 5147  11.674   7.609   2.108
  430DOPC   D2A 5148  11.550   7.509   2.589
  430DOPC   C3A 5149  11.615   7.432   3.058
  430DOPC   C4A 5150  11.693   7.385   3.551
  430DOPC   C1B 5151  11.170   7.675   1.920
  430DOPC   D2B 5152  10.833   7.412   2.190
  430DOPC   C3B 5153  10.973   7.424   2.635
  430DOPC   C4B 5154  11.109   7.296   3.098
  431DOPC   NC3 5155   3.723   9.640   1.255
  431DOPC   PO4 5156   3.671   9.285   1.446
  431DOPC   GL1 5157   3.561   9.269   1.888
  431DOPC   GL2 5158   3.312   9.436   1.798
  431DOPC   C1A 5159   3.402   9.320   2.308
  431DOPC   D2A 5160   3.121   9.442   2.703
  431DOPC   C3A 5161   3.497   9.398   2.979
  431DOPC   C4A 5162   3.901   9.212   3.167
  431DOPC   C1B 5163   3.267   9.774   2.115
  431DOPC   D2B 5164   3.266   0.027   2.559
  431DOPC   C3B 5165   3.248   9.857   2.995
  431DOPC   C4B 5166   3.069   9.459   3.253
  432DOPC   NC3 5167   4.169   8.439   1.223
  432DOPC   PO4 5168   4.494   8.672   1.263
  432DOPC   GL1 5169   4.402   8.797   1.646
  432DOPC   GL2 5170   4.281   8.510   1.679
  432DOPC   C1A 5171   4.580   8.941   2.024
  432DOPC   D2A 5172   4.737   8.918   2.500
  432DOPC   C3A 5173   4.570   9.095   2.907
  432DOPC   C4A 5174   4.379   9.178   3.358
  432DOPC   C1B 5175   4.130   8.669   2.049
  432DOPC   D2B 5176   4.215   8.969   2.446
  432DOPC   C3B 5177   4.175   8.754   2.864
  432DOPC   C4B 5178   4.001   8.382   3.142
  433DOPC   NC3 5179  16.759   2.528   1.082
  433DOPC   PO4 5180  17.019   2.402   1.363
  433DOPC   GL1 5181  17.080   2.574   1.716
  433DOPC   GL2 5182  17.275   2.785   1.692
  433DOPC   C1A 5183  17.042   2.562   2.152
  433DOPC   D2A 5184  17.062   2.472   2.641
  433DOPC   C3A 5185  17.103   2.597   3.090
  433DOPC   C4A 5186  17.054   2.780   3.554
  433DOPC   C1B 5187  17.534   2.706   2.035
  433DOPC   D2B 5188  17.717   2.540   2.453
  433DOPC   C3B 5189  17.613   2.745   2.852
  433DOPC   C4B 5190  17.483   2.880   3.291
  434DOPC   NC3 5191   6.567   2.334   1.144
  434DOPC   PO4 5192   6.263   2.575   1.259
  434DOPC   GL1 5193   6.435   2.424   1.605
  434DOPC   GL2 5194   6.719   2.535   1.545
  434DOPC   C1A 5195   6.468   2.417   2.032
  434DOPC   D2A 5196   6.450   2.572   2.500
  434DOPC   C3A 5197   6.497   2.414   2.931
  434DOPC   C4A 5198   6.598   2.534   3.396
  434DOPC   C1B 5199   6.945   2.555   1.940
  434DOPC   D2B 5200   6.960   2.598   2.445
  434DOPC   C3B 5201   6.856   2.807   2.860
  434DOPC   C4B 5202   6.791   3.009   3.309
  435DOPC   NC3 5203   6.821   9.571   1.127
  435DOPC   PO4 5204   6.805   9.975   1.061
  435DOPC   GL1 5205   6.794   0.116   1.475
  435DOPC   GL2 5206   6.728   9.807   1.545
  435DOPC   C1A 5207   6.975   0.117   1.874
  435DOPC   D2A 5208   7.048   9.912   2.344
  435DOPC   C3A 5209   6.839   9.923   2.784
  435DOPC   C4A 5210   6.452   0.060   3.083
  435DOPC   C1B 5211   6.689   9.719   1.996
  435DOPC   D2B 5212   6.659   9.529   2.466
  435DOPC   C3B 5213   6.392   9.590   2.846
  435DOPC   C4B 5214   6.044   9.708   3.177
  436DOPC   NC3 5215   8.344   4.345   1.074
  436DOPC   PO4 5216   8.157   4.624   1.295
  436DOPC   GL1 5217   8.271   4.340   1.576
  436DOPC   GL2 5218   8.126   4.103   1.441
  436DOPC   C1A 5219   8.210   4.336   2.017
  436DOPC   D2A 5220   8.259   4.157   2.471
  436DOPC   C3A 5221   8.142   4.313   2.891
  436DOPC   C4A 5222   8.017   4.506   3.329
  436DOPC   C1B 5223   7.879   4.052   1.801
  436DOPC   D2B 5224   7.765   4.184   2.289
  436DOPC   C3B 5225   7.724   4.070   2.762
  436DOPC   C4B 5226   7.738   3.928   3.254
  437DOPC   NC3 5227  13.733   9.482   1.469
  437DOPC   PO4 5228  13.432   9.679   1.274
  437DOPC   GL1 5229  13.201   9.723   1.689
  437DOPC   GL2 5230  13.301   9.439   1.681
  437DOPC   C1A 5231  13.314   9.804   2.131
  437DOPC   D2A 5232  13.410   9.893   2.628
  437DOPC   C3A 5233  13.239   9.657   2.998
  437DOPC   C4A 5234  13.446   9.493   3.427
  437DOPC   C1B 5235  13.489   9.272   2.038
  437DOPC   D2B 5236  13.492   9.020   2.489
  437DOPC   C3B 5237  13.292   9.129   2.915
  437DOPC   C4B 5238  12.990   9.314   3.284
  438DOPC   NC3 5239  10.402   6.392   1.159
  438DOPC   PO4 5240  10.198   6.112   1.360
  438DOPC   GL1 5241  10.055   6.461   1.588
  438DOPC   GL2 5242  10.332   6.601   1.569
  438DOPC   C1A 5243  10.147   6.469   2.015
  438DOPC   D2A 5244  10.478   6.506   2.387
  438DOPC   C3A 5245  10.471   6.533   2.848
  438DOPC   C4A 5246  10.407   6.560   3.332
  438DOPC   C1B 5247  10.634   6.650   1.928
  438DOPC   D2B 5248  10.920   6.749   2.359
  438DOPC   C3B 5249  10.858   6.885   2.818
  438DOPC   C4B 5250  10.816   6.910   3.317
  439DOPC   NC3 5251   0.484   4.088   1.205
  439DOPC   PO4 5252   0.594   4.433   1.382
  439DOPC   GL1 5253   0.832   4.243   1.686
  439DOPC   GL2 5254   0.670   3.985   1.626
  439DOPC   C1A 5255   0.743   4.360   2.108
  439DOPC   D2A 5256   0.692   4.447   2.604
  439DOPC   C3A 5257   0.587   4.302   3.046
  439DOPC   C4A 5258   0.466   4.222   3.532
  439DOPC   C1B 5259   0.337   4.098   1.914
  439DOPC   D2B 5260   0.244   4.426   2.288
  439DOPC   C3B 5261   0.197   4.275   2.725
  439DOPC   C4B 5262   0.198   3.961   3.117
  440DOPC   NC3 5263  11.250   3.527   1.170
  440DOPC   PO4 5264  11.639   3.385   1.173
  440DOPC   GL1 5265  11.590   3.359   1.613
  440DOPC   GL2 5266  11.323   3.230   1.529
  440DOPC   C1A 5267  11.599   3.378   2.071
  440DOPC   D2A 5268  11.636   3.344   2.563
  440DOPC   C3A 5269  11.599   3.389   3.032
  440DOPC   C4A 5270  11.616   3.339   3.525
  440DOPC   C1B 5271  11.129   3.427   1.858
  440DOPC   D2B 5272  11.170   3.528   2.344
  440DOPC   C3B 5273  11.138   3.556   2.807
  440DOPC   C4B 5274  10.984   3.818   3.193
  441DOPC   NC3 5275   7.609   6.779   1.331
  441DOPC   PO4 5276   7.243   6.872   1.451
  441DOPC   GL1 5277   7.386   6.762   1.823
  441DOPC   GL2 5278   7.436   6.462   1.731
  441DOPC   C1A 5279   7.247   6.774   2.252
  441DOPC   D2A 5280   7.432   6.698   2.711
  441DOPC   C3A 5281   7.407   6.854   3.142
  441DOPC   C4A 5282   7.362   7.026   3.599
  441DOPC   C1B 5283   7.275   6.262   2.119
  441DOPC   D2B 5284   7.101   6.334   2.594
  441DOPC   C3B 5285   6.912   6.302   3.041
  441DOPC   C4B 5286   6.811   6.251   3.526
  442DOPC   NC3 5287   5.271   4.419   1.130
  442DOPC   PO4 5288   5.585   4.328   1.368
  442DOPC   GL1 5289   5.574   4.061   1.695
  442DOPC   GL2 5290   5.285   4.028   1.689
  442DOPC   C1A 5291   5.611   4.284   2.069
  442DOPC   D2A 5292   5.588   4.573   2.482
  442DOPC   C3A 5293   5.372   4.416   2.871
  442DOPC   C4A 5294   5.360   3.994   3.133
  442DOPC   C1B 5295   5.235   3.883   2.109
  442DOPC   D2B 5296   5.277   3.821   2.606
  442DOPC   C3B 5297   4.937   4.055   2.858
  442DOPC   C4B 5298   4.640   4.434   3.002
  443DOPC   NC3 5299   8.718   7.541   1.344
  443DOPC   PO4 5300   8.326   7.531   1.443
  443DOPC   GL1 5301   8.405   7.211   1.662
  443DOPC   GL2 5302   8.699   7.187   1.644
  443DOPC   C1A 5303   8.451   7.235   2.093
  443DOPC   D2A 5304   8.725   7.135   2.497
  443DOPC   C3A 5305   8.563   7.360   2.868
  443DOPC   C4A 5306   8.439   7.681   3.212
  443DOPC   C1B 5307   8.908   7.428   1.968
  443DOPC   D2B 5308   9.138   7.540   2.404
  443DOPC   C3B 5309   9.025   7.590   2.860
  443DOPC   C4B 5310   8.982   7.887   3.255
  444DOPC   NC3 5311   3.040   8.415   0.991
  444DOPC   PO4 5312   3.192   8.607   1.314
  444DOPC   GL1 5313   3.326   8.479   1.691
  444DOPC   GL2 5314   3.203   8.207   1.709
  444DOPC   C1A 5315   3.601   8.503   2.041
  444DOPC   D2A 5316   3.867   8.523   2.481
  444DOPC   C3A 5317   3.578   8.346   2.813
  444DOPC   C4A 5318   3.224   8.507   3.130
  444DOPC   C1B 5319   3.331   8.057   2.113
  444DOPC   D2B 5320   3.498   7.897   2.562
  444DOPC   C3B 5321   3.463   7.878   3.033
  444DOPC   C4B 5322   3.381   7.999   3.508
  445DOPC   NC3 5323   5.031   5.910   1.108
  445DOPC   PO4 5324   4.821   6.213   1.274
  445DOPC   GL1 5325   4.997   6.092   1.616
  445DOPC   GL2 5326   5.023   5.791   1.564
  445DOPC   C1A 5327   5.069   6.269   2.018
  445DOPC   D2A 5328   5.077   6.529   2.446
  445DOPC   C3A 5329   5.015   6.287   2.850
  445DOPC   C4A 5330   5.003   6.070   3.304
  445DOPC   C1B 5331   5.139   5.706   1.985
  445DOPC   D2B 5332   4.941   5.777   2.439
  445DOPC   C3B 5333   4.810   5.779   2.886
  445DOPC   C4B 5334   4.636   5.692   3.337
  446DOPC   NC3 5335  15.410   3.334   1.052
  446DOPC   PO4 5336  15.466   3.510   1.405
  446DOPC   GL1 5337  15.145   3.302   1.624
  446DOPC   GL2 5338  15.345   3.076   1.678
  446DOPC   C1A 5339  14.909   3.408   2.006
  446DOPC   D2A 5340  14.659   3.448   2.446
  446DOPC   C3A 5341  14.701   3.571   2.900
  446DOPC   C4A 5342  14.952   3.794   3.264
  446DOPC   C1B 5343  15.337   3.145   2.104
  446DOPC   D2B 5344  15.324   3.228   2.588
  446DOPC   C3B 5345  15.497   3.356   2.995
  446DOPC   C4B 5346  15.446   3.544   3.441
  447DOPC   NC3 5347   8.817   9.472   0.893
  447DOPC   PO4 5348   8.557   9.470   1.206
  447DOPC   GL1 5349   8.690   9.448   1.632
  447DOPC   GL2 5350   8.625   9.748   1.643
  447DOPC   C1A 5351   8.834   9.351   2.065
  447DOPC   D2A 5352   9.056   9.398   2.527
  447DOPC   C3A 5353   8.845   9.342   2.945
  447DOPC   C4A 5354   8.633   9.385   3.392
  447DOPC   C1B 5355   8.759   9.882   2.050
  447DOPC   D2B 5356   8.961   0.079   2.467
  447DOPC   C3B 5357   8.993   9.837   2.870
  447DOPC   C4B 5358   9.093   9.608   3.299
  448DOPC   NC3 5359   2.019   2.738   1.062
  448DOPC   PO4 5360   1.851   2.384   1.157
  448DOPC   GL1 5361   1.717   2.547   1.514
  448DOPC   GL2 5362   1.798   2.841   1.471
  448DOPC   C1A 5363   1.693   2.435   1.943
  448DOPC   D2A 5364   1.645   2.208   2.406
  448DOPC   C3A 5365   1.751   2.423   2.818
  448DOPC   C4A 5366   1.806   2.708   3.227
  448DOPC   C1B 5367   1.946   2.897   1.897
  448DOPC   D2B 5368   2.064   2.892   2.401
  448DOPC   C3B 5369   2.018   3.033   2.860
  448DOPC   C4B 5370   1.888   3.222   3.305
  449DOPC   NC3 5371   1.977   9.644   1.183
  449DOPC   PO4 5372   2.050   9.251   1.134
  449DOPC   GL1 5373   2.184   9.200   1.567
  449DOPC   GL2 5374   2.021   9.461   1.612
  449DOPC   C1A 5375   2.211   9.208   2.018
  449DOPC   D2A 5376   2.027   9.273   2.485
  449DOPC   C3A 5377   2.113   9.376   2.945
  449DOPC   C4A 5378   2.099   9.562   3.421
  449DOPC   C1B 5379   1.943   9.623   2.039
  449DOPC   D2B 5380   1.833   9.774   2.508
  449DOPC   C3B 5381   1.796   9.783   2.981
  449DOPC   C4B 5382   1.625   9.814   3.448
  450DOPC   NC3 5383   5.605   4.814   1.223
  450DOPC   PO4 5384   5.590   5.221   1.194
  450DOPC   GL1 5385   5.957   5.287   1.437
  450DOPC   GL2 5386   5.912   4.993   1.520
  450DOPC   C1A 5387   6.039   5.373   1.854
  450DOPC   D2A 5388   6.133   5.250   2.326
  450DOPC   C3A 5389   6.099   5.229   2.804
  450DOPC   C4A 5390   5.966   5.096   3.265
  450DOPC   C1B 5391   5.705   5.000   1.912
  450DOPC   D2B 5392   5.663   5.088   2.410
  450DOPC   C3B 5393   5.648   4.938   2.853
  450DOPC   C4B 5394   5.508   4.723   3.270
  451DOPC   NC3 5395  13.549   8.777   1.240
  451DOPC   PO4 5396  13.159   8.846   1.271
  451DOPC   GL1 5397  13.236   9.000   1.668
  451DOPC   GL2 5398  13.547   9.036   1.637
  451DOPC   C1A 5399  13.198   8.846   2.081
  451DOPC   D2A 5400  13.274   8.529   2.463
  451DOPC   C3A 5401  13.247   8.601   2.919
  451DOPC   C4A 5402  13.256   8.858   3.340
  451DOPC   C1B 5403  13.733   8.839   2.026
  451DOPC   D2B 5404  13.796   8.581   2.468
  451DOPC   C3B 5405  13.740   8.785   2.893
  451DOPC   C4B 5406  13.743   9.091   3.285
  452DOPC   NC3 5407  12.135   1.676   1.339
  452DOPC   PO4 5408  12.151   1.294   1.211
  452DOPC   GL1 5409  12.359   1.353   1.607
  452DOPC   GL2 5410  12.256   1.082   1.695
  452DOPC   C1A 5411  12.169   1.590   1.919
  452DOPC   D2A 5412  11.885   1.574   2.334
  452DOPC   C3A 5413  11.991   1.508   2.797
  452DOPC   C4A 5414  12.020   1.421   3.297
  452DOPC   C1B 5415  12.003   1.097   2.088
  452DOPC   D2B 5416  11.717   1.105   2.526
  452DOPC   C3B 5417  11.667   1.132   3.014
  452DOPC   C4B 5418  11.590   1.133   3.515
  453DOPC   NC3 5419  19.444   8.050   1.129
  453DOPC   PO4 5420  19.368   7.984   1.513
  453DOPC   GL1 5421  19.626   7.862   1.821
  453DOPC   GL2 5422  19.827   8.067   1.772
  453DOPC   C1A 5423  19.518   7.930   2.243
  453DOPC   D2A 5424  19.340   8.043   2.697
  453DOPC   C3A 5425  19.568   8.334   2.987
  453DOPC   C4A 5426  19.518   8.672   3.357
  453DOPC   C1B 5427  19.976   8.190   2.184
  453DOPC   D2B 5428   0.031   8.175   2.687
  453DOPC   C3B 5429  19.842   7.925   3.045
  453DOPC   C4B 5430  19.992   7.719   3.465
  454DOPC   NC3 5431   1.539   4.976   1.103
  454DOPC   PO4 5432   1.316   5.276   1.273
  454DOPC   GL1 5433   1.529   5.105   1.628
  454DOPC   GL2 5434   1.396   4.830   1.528
  454DOPC   C1A 5435   1.511   5.080   2.085
  454DOPC   D2A 5436   1.371   4.975   2.566
  454DOPC   C3A 5437   1.344   4.990   3.042
  454DOPC   C4A 5438   1.326   4.984   3.548
  454DOPC   C1B 5439   1.103   4.857   1.843
  454DOPC   D2B 5440   0.947   4.803   2.317
  454DOPC   C3B 5441   0.843   4.983   2.747
  454DOPC   C4B 5442   0.519   5.266   3.004
  455DOPC   NC3 5443  10.271   7.363   0.974
  455DOPC   PO4 5444  10.056   7.600   1.219
  455DOPC   GL1 5445  10.140   7.468   1.615
  455DOPC   GL2 5446  10.142   7.190   1.459
  455DOPC   C1A 5447  10.318   7.465   2.043
  455DOPC   D2A 5448  10.454   7.464   2.535
  455DOPC   C3A 5449  10.606   7.373   2.979
  455DOPC   C4A 5450  10.654   7.398   3.473
  455DOPC   C1B 5451  10.254   6.994   1.832
  455DOPC   D2B 5452  10.461   7.005   2.287
  455DOPC   C3B 5453  10.355   7.009   2.742
  455DOPC   C4B 5454  10.303   7.061   3.237
  456DOPC   NC3 5455  12.649   3.593   1.181
  456DOPC   PO4 5456  12.893   3.272   1.231
  456DOPC   GL1 5457  12.955   3.407   1.657
  456DOPC   GL2 5458  12.898   3.697   1.565
  456DOPC   C1A 5459  12.778   3.424   2.078
  456DOPC   D2A 5460  12.567   3.470   2.540
  456DOPC   C3A 5461  12.542   3.383   3.011
  456DOPC   C4A 5462  12.535   3.254   3.489
  456DOPC   C1B 5463  12.770   3.906   1.921
  456DOPC   D2B 5464  12.782   3.942   2.425
  456DOPC   C3B 5465  12.808   3.808   2.871
  456DOPC   C4B 5466  12.825   3.674   3.342
  457DOPC   NC3 5467  12.162   9.359   0.986
  457DOPC   PO4 5468  12.464   9.460   1.242
  457DOPC   GL1 5469  12.331   9.307   1.628
  457DOPC   GL2 5470  12.040   9.364   1.512
  457DOPC   C1A 5471  12.381   9.449   2.052
  457DOPC   D2A 5472  12.374   9.721   2.491
  457DOPC   C3A 5473  12.153   9.566   2.884
  457DOPC   C4A 5474  11.973   9.148   3.104
  457DOPC   C1B 5475  11.857   9.611   1.851
  457DOPC   D2B 5476  11.659   9.841   2.265
  457DOPC   C3B 5477  11.622   9.918   2.732
  457DOPC   C4B 5478  11.706   9.847   3.217
  458DOPC   NC3 5479   2.947   6.827   1.001
  458DOPC   PO4 5480   3.171   6.775   1.333
  458DOPC   GL1 5481   3.129   6.859   1.741
  458DOPC   GL2 5482   3.032   7.149   1.692
  458DOPC   C1A 5483   2.967   6.751   2.145
  458DOPC   D2A 5484   2.677   6.726   2.563
  458DOPC   C3A 5485   2.680   6.468   2.962
  458DOPC   C4A 5486   2.756   6.240   3.398
  458DOPC   C1B 5487   2.830   7.246   2.091
  458DOPC   D2B 5488   2.750   7.240   2.597
  458DOPC   C3B 5489   2.622   7.007   3.001
  458DOPC   C4B 5490   2.472   6.722   3.386
  459DOPC   NC3 5491  14.271   4.558   1.049
  459DOPC   PO4 5492  14.000   4.782   1.271
  459DOPC   GL1 5493  14.024   4.555   1.612
  459DOPC   GL2 5494  14.171   4.330   1.477
  459DOPC   C1A 5495  13.967   4.439   2.034
  459DOPC   D2A 5496  13.888   4.333   2.512
  459DOPC   C3A 5497  14.005   4.582   2.892
  459DOPC   C4A 5498  14.150   4.872   3.268
  459DOPC   C1B 5499  14.289   4.098   1.850
  459DOPC   D2B 5500  14.242   3.987   2.346
  459DOPC   C3B 5501  14.316   4.187   2.775
  459DOPC   C4B 5502  14.308   4.386   3.237
  460DOPC   NC3 5503  12.014   5.634   1.003
  460DOPC   PO4 5504  12.360   5.677   1.212
  460DOPC   GL1 5505  12.256   5.730   1.602
  460DOPC   GL2 5506  11.964   5.748   1.611
  460DOPC   C1A 5507  12.416   5.662   2.010
  460DOPC   D2A 5508  12.525   5.606   2.496
  460DOPC   C3A 5509  12.257   5.572   2.880
  460DOPC   C4A 5510  12.040   5.602   3.313
  460DOPC   C1B 5511  11.891   5.581   2.030
  460DOPC   D2B 5512  11.853   5.462   2.513
  460DOPC   C3B 5513  11.724   5.706   2.889
  460DOPC   C4B 5514  11.593   5.904   3.319
  461DOPC   NC3 5515   8.489   5.990   1.402
  461DOPC   PO4 5516   8.750   6.254   1.237
  461DOPC   GL1 5517   8.845   6.244   1.659
  461DOPC   GL2 5518   8.546   6.328   1.731
  461DOPC   C1A 5519   9.139   6.165   2.015
  461DOPC   D2A 5520   9.321   6.098   2.492
  461DOPC   C3A 5521   9.119   6.268   2.887
  461DOPC   C4A 5522   8.702   6.424   3.126
  461DOPC   C1B 5523   8.639   6.246   2.152
  461DOPC   D2B 5524   8.668   6.224   2.651
  461DOPC   C3B 5525   8.646   5.912   3.012
  461DOPC   C4B 5526   8.480   5.482   3.234
  462DOPC   NC3 5527  18.118   2.164   1.282
  462DOPC   PO4 5528  17.840   1.886   1.291
  462DOPC   GL1 5529  17.729   2.015   1.706
  462DOPC   GL2 5530  18.032   2.004   1.711
  462DOPC   C1A 5531  17.743   1.901   2.128
  462DOPC   D2A 5532  17.942   1.652   2.516
  462DOPC   C3A 5533  17.892   1.894   2.913
  462DOPC   C4A 5534  18.123   2.154   3.264
  462DOPC   C1B 5535  18.288   1.941   2.058
  462DOPC   D2B 5536  18.605   2.056   2.431
  462DOPC   C3B 5537  18.407   1.917   2.831
  462DOPC   C4B 5538  18.243   1.647   3.219
  463DOPC   NC3 5539   5.598   0.572   1.134
  463DOPC   PO4 5540   5.839   0.879   1.224
  463DOPC   GL1 5541   5.604   0.949   1.587
  463DOPC   GL2 5542   5.607   0.639   1.625
  463DOPC   C1A 5543   5.620   0.984   2.020
  463DOPC   D2A 5544   5.712   1.061   2.496
  463DOPC   C3A 5545   5.712   0.996   2.952
  463DOPC   C4A 5546   5.694   0.583   3.221
  463DOPC   C1B 5547   5.736   0.461   2.034
  463DOPC   D2B 5548   5.878   0.153   2.424
  463DOPC   C3B 5549   5.961   0.173   2.894
  463DOPC   C4B 5550   6.041   0.212   3.381
  464DOPC   NC3 5551  11.924   2.075   1.060
  464DOPC   PO4 5552  11.680   1.902   1.328
  464DOPC   GL1 5553  11.738   2.204   1.599
  464DOPC   GL2 5554  12.018   2.283   1.462
  464DOPC   C1A 5555  11.712   2.034   2.040
  464DOPC   D2A 5556  11.774   2.027   2.540
  464DOPC   C3A 5557  11.744   1.913   2.996
  464DOPC   C4A 5558  11.528   1.594   3.308
  464DOPC   C1B 5559  12.155   2.095   1.820
  464DOPC   D2B 5560  12.217   1.970   2.309
  464DOPC   C3B 5561  12.231   1.980   2.787
  464DOPC   C4B 5562  12.322   1.858   3.266
  465DOPC   NC3 5563   8.615   9.984   1.102
  465DOPC   PO4 5564   8.900   0.219   1.279
  465DOPC   GL1 5565   8.849   0.449   1.655
  465DOPC   GL2 5566   8.882   0.725   1.542
  465DOPC   C1A 5567   8.788   0.472   2.109
  465DOPC   D2A 5568   8.781   0.558   2.606
  465DOPC   C3A 5569   8.686   0.262   2.958
  465DOPC   C4A 5570   8.619   9.887   3.283
  465DOPC   C1B 5571   9.043   0.950   1.896
  465DOPC   D2B 5572   9.206   1.072   2.366
  465DOPC   C3B 5573   9.221   0.881   2.796
  465DOPC   C4B 5574   9.097   0.674   3.220
  466DOPC   NC3 5575  18.587   7.187   1.335
  466DOPC   PO4 5576  18.574   7.574   1.449
  466DOPC   GL1 5577  18.258   7.372   1.640
  466DOPC   GL2 5578  18.056   7.565   1.562
  466DOPC   C1A 5579  18.347   7.353   2.076
  466DOPC   D2A 5580  18.282   7.348   2.580
  466DOPC   C3A 5581  18.425   7.132   2.978
  466DOPC   C4A 5582  18.368   7.018   3.460
  466DOPC   C1B 5583  17.947   7.723   1.958
  466DOPC   D2B 5584  17.822   7.846   2.429
  466DOPC   C3B 5585  18.010   7.724   2.840
  466DOPC   C4B 5586  18.164   7.480   3.249
  467DOPC   NC3 5587  10.402   4.075   1.093
  467DOPC   PO4 5588  10.712   4.299   1.208
  467DOPC   GL1 5589  10.557   4.360   1.598
  467DOPC   GL2 5590  10.298   4.208   1.537
  467DOPC   C1A 5591  10.579   4.265   2.027
  467DOPC   D2A 5592  10.511   4.087   2.493
  467DOPC   C3A 5593  10.611   4.191   2.936
  467DOPC   C4A 5594  10.681   4.318   3.401
  467DOPC   C1B 5595  10.201   3.929   1.898
  467DOPC   D2B 5596  10.155   3.720   2.374
  467DOPC   C3B 5597  10.150   3.895   2.829
  467DOPC   C4B 5598  10.164   4.231   3.207
  468DOPC   NC3 5599   4.952   0.480   1.082
  468DOPC   PO4 5600   4.732   0.172   1.218
  468DOPC   GL1 5601   4.890   0.138   1.632
  468DOPC   GL2 5602   5.026   0.403   1.587
  468DOPC   C1A 5603   4.785   0.241   2.054
  468DOPC   D2A 5604   4.543   0.358   2.482
  468DOPC   C3A 5605   4.826   0.381   2.846
  468DOPC   C4A 5606   5.210   0.431   3.148
  468DOPC   C1B 5607   5.207   0.567   1.981
  468DOPC   D2B 5608   5.244   0.854   2.397
  468DOPC   C3B 5609   5.211   0.868   2.871
  468DOPC   C4B 5610   5.267   0.891   3.367
  469DOPC   NC3 5611  16.131   5.435   1.110
  469DOPC   PO4 5612  16.011   5.656   1.421
  469DOPC   GL1 5613  15.951   5.497   1.829
  469DOPC   GL2 5614  15.648   5.467   1.785
  469DOPC   C1A 5615  15.992   5.477   2.274
  469DOPC   D2A 5616  15.741   5.269   2.647
  469DOPC   C3A 5617  15.983   5.590   2.903
  469DOPC   C4A 5618  16.090   5.819   3.336
  469DOPC   C1B 5619  15.493   5.525   2.212
  469DOPC   D2B 5620  15.476   5.697   2.699
  469DOPC   C3B 5621  15.620   5.879   3.129
  469DOPC   C4B 5622  15.708   6.037   3.604
  470DOPC   NC3 5623   0.352   1.209   1.079
  470DOPC   PO4 5624   0.467   0.891   1.300
  470DOPC   GL1 5625   0.280   0.861   1.719
  470DOPC   GL2 5626   0.140   1.126   1.640
  470DOPC   C1A 5627   0.377   0.916   2.163
  470DOPC   D2A 5628   0.305   1.073   2.649
  470DOPC   C3A 5629   0.297   0.994   3.115
  470DOPC   C4A 5630   0.300   0.936   3.615
  470DOPC   C1B 5631   0.162   1.379   2.026
  470DOPC   D2B 5632   0.242   1.601   2.480
  470DOPC   C3B 5633   0.362   1.539   2.943
  470DOPC   C4B 5634   0.536   1.359   3.383
  471DOPC   NC3 5635   4.503   3.504   1.144
  471DOPC   PO4 5636   4.635   3.836   1.320
  471DOPC   GL1 5637   4.704   3.551   1.620
  471DOPC   GL2 5638   4.462   3.394   1.592
  471DOPC   C1A 5639   4.724   3.741   2.018
  471DOPC   D2A 5640   4.742   3.716   2.517
  471DOPC   C3A 5641   4.564   3.536   2.913
  471DOPC   C4A 5642   4.320   3.503   3.334
  471DOPC   C1B 5643   4.401   3.353   2.015
  471DOPC   D2B 5644   4.385   3.323   2.499
  471DOPC   C3B 5645   4.174   3.214   2.910
  471DOPC   C4B 5646   3.991   3.102   3.367
  472DOPC   NC3 5647  18.840   1.966   1.225
  472DOPC   PO4 5648  18.973   2.325   1.376
  472DOPC   GL1 5649  19.004   2.358   1.838
  472DOPC   GL2 5650  18.952   2.055   1.812
  472DOPC   C1A 5651  18.946   2.427   2.294
  472DOPC   D2A 5652  18.827   2.354   2.795
  472DOPC   C3A 5653  19.011   2.324   3.235
  472DOPC   C4A 5654  19.111   2.332   3.729
  472DOPC   C1B 5655  19.022   1.818   2.189
  472DOPC   D2B 5656  19.210   1.611   2.612
  472DOPC   C3B 5657  18.932   1.833   2.930
  472DOPC   C4B 5658  18.620   1.988   3.291
  473DOPC   NC3 5659  11.216   8.944   1.074
  473DOPC   PO4 5660  11.039   8.633   1.259
  473DOPC   GL1 5661  11.160   8.687   1.657
  473DOPC   GL2 5662  11.400   8.842   1.541
  473DOPC   C1A 5663  11.043   8.716   2.089
  473DOPC   D2A 5664  10.918   8.790   2.560
  473DOPC   C3A 5665  11.012   8.584   2.957
  473DOPC   C4A 5666  11.147   8.359   3.375
  473DOPC   C1B 5667  11.512   8.934   1.952
  473DOPC   D2B 5668  11.464   9.063   2.436
  473DOPC   C3B 5669  11.211   9.174   2.823
  473DOPC   C4B 5670  10.974   9.338   3.238
  474DOPC   NC3 5671   6.958   1.774   1.358
  474DOPC   PO4 5672   6.987   2.177   1.368
  474DOPC   GL1 5673   6.760   2.110   1.680
  474DOPC   GL2 5674   6.511   1.995   1.558
  474DOPC   C1A 5675   6.804   1.975   2.085
  474DOPC   D2A 5676   6.553   2.062   2.491
  474DOPC   C3A 5677   6.760   1.956   2.880
  474DOPC   C4A 5678   6.944   1.892   3.316
  474DOPC   C1B 5679   6.307   1.931   1.978
  474DOPC   D2B 5680   6.116   1.816   2.455
  474DOPC   C3B 5681   6.205   1.877   2.916
  474DOPC   C4B 5682   6.467   2.051   3.294
  475DOPC   NC3 5683   4.332   4.292   1.229
  475DOPC   PO4 5684   4.101   4.625   1.181
  475DOPC   GL1 5685   3.834   4.554   1.530
  475DOPC   GL2 5686   3.923   4.258   1.474
  475DOPC   C1A 5687   3.891   4.713   1.956
  475DOPC   D2A 5688   3.979   4.887   2.426
  475DOPC   C3A 5689   3.974   4.604   2.806
  475DOPC   C4A 5690   4.171   4.376   3.204
  475DOPC   C1B 5691   4.141   4.233   1.853
  475DOPC   D2B 5692   4.141   4.390   2.330
  475DOPC   C3B 5693   4.276   4.162   2.728
  475DOPC   C4B 5694   4.476   3.966   3.138
  476DOPC   NC3 5695  13.637   8.228   1.341
  476DOPC   PO4 5696  13.947   8.474   1.266
  476DOPC   GL1 5697  13.871   8.599   1.656
  476DOPC   GL2 5698  13.564   8.589   1.652
  476DOPC   C1A 5699  13.834   8.338   2.013
  476DOPC   D2A 5700  13.556   8.106   2.367
  476DOPC   C3A 5701  13.596   8.224   2.818
  476DOPC   C4A 5702  13.727   8.057   3.265
  476DOPC   C1B 5703  13.313   8.369   1.947
  476DOPC   D2B 5704  12.987   8.151   2.260
  476DOPC   C3B 5705  13.115   8.030   2.694
  476DOPC   C4B 5706  13.328   7.786   3.072
  477DOPC   NC3 5707   0.589   8.961   1.017
  477DOPC   PO4 5708   0.316   8.878   1.287
  477DOPC   GL1 5709   0.638   8.988   1.567
  477DOPC   GL2 5710   0.746   8.701   1.523
  477DOPC   C1A 5711   0.746   8.961   1.995
  477DOPC   D2A 5712   0.585   8.865   2.455
  477DOPC   C3A 5713   0.510   8.950   2.900
  477DOPC   C4A 5714   0.238   9.067   3.295
  477DOPC   C1B 5715   0.561   8.484   1.890
  477DOPC   D2B 5716   0.442   8.348   2.370
  477DOPC   C3B 5717   0.496   8.435   2.829
  477DOPC   C4B 5718   0.447   8.602   3.293
  478DOPC   NC3 5719  16.335   9.871   1.132
  478DOPC   PO4 5720  16.729   9.923   1.206
  478DOPC   GL1 5721  16.613   9.640   1.485
  478DOPC   GL2 5722  16.387   9.807   1.605
  478DOPC   C1A 5723  16.768   9.512   1.863
  478DOPC   D2A 5724  16.946   9.367   2.293
  478DOPC   C3A 5725  16.884   9.387   2.754
  478DOPC   C4A 5726  16.864   9.245   3.238
  478DOPC   C1B 5727  16.322   9.678   2.043
  478DOPC   D2B 5728  16.408   9.428   2.483
  478DOPC   C3B 5729  16.441   9.555   2.944
  478DOPC   C4B 5730  16.676   9.706   3.356
  479DOPC   NC3 5731   9.893   6.435   1.116
  479DOPC   PO4 5732  10.069   6.785   1.206
  479DOPC   GL1 5733   9.835   6.896   1.586
  479DOPC   GL2 5734   9.654   6.666   1.471
  479DOPC   C1A 5735   9.822   6.846   2.050
  479DOPC   D2A 5736  10.022   6.714   2.498
  479DOPC   C3A 5737   9.997   6.710   2.975
  479DOPC   C4A 5738   9.947   6.762   3.470
  479DOPC   C1B 5739   9.648   6.407   1.839
  479DOPC   D2B 5740   9.748   6.319   2.328
  479DOPC   C3B 5741   9.577   6.503   2.731
  479DOPC   C4B 5742   9.403   6.719   3.147
  480DOPC   NC3 5743  18.116   1.121   1.176
  480DOPC   PO4 5744  18.206   1.511   1.251
  480DOPC   GL1 5745  17.905   1.487   1.574
  480DOPC   GL2 5746  18.095   1.229   1.632
  480DOPC   C1A 5747  17.955   1.459   2.010
  480DOPC   D2A 5748  18.087   1.172   2.405
  480DOPC   C3A 5749  17.895   1.215   2.840
  480DOPC   C4A 5750  17.792   1.228   3.324
  480DOPC   C1B 5751  18.429   1.325   1.930
  480DOPC   D2B 5752  18.451   1.568   2.370
  480DOPC   C3B 5753  18.372   1.396   2.791
  480DOPC   C4B 5754  18.314   1.140   3.206
  481DOPC   NC3 5755  10.940   9.748   1.072
  481DOPC   PO4 5756  10.661   9.983   1.223
  481DOPC   GL1 5757  10.808   9.896   1.612
  481DOPC   GL2 5758  10.892   9.608   1.517
  481DOPC   C1A 5759  10.486   9.837   1.943
  481DOPC   D2A 5760  10.107   9.773   2.267
  481DOPC   C3A 5761  10.035   9.996   2.676
  481DOPC   C4A 5762   9.984   0.215   3.114
  481DOPC   C1B 5763  10.646   9.393   1.805
  481DOPC   D2B 5764  10.441   9.359   2.262
  481DOPC   C3B 5765  10.302   9.548   2.676
  481DOPC   C4B 5766   9.978   9.622   3.043
  482DOPC   NC3 5767   8.284   8.703   1.036
  482DOPC   PO4 5768   7.911   8.818   1.124
  482DOPC   GL1 5769   8.178   8.865   1.475
  482DOPC   GL2 5770   8.226   9.154   1.395
  482DOPC   C1A 5771   8.125   8.761   1.925
  482DOPC   D2A 5772   8.191   8.649   2.425
  482DOPC   C3A 5773   8.030   8.734   2.870
  482DOPC   C4A 5774   7.824   8.827   3.317
  482DOPC   C1B 5775   8.002   9.237   1.747
  482DOPC   D2B 5776   8.018   9.200   2.235
  482DOPC   C3B 5777   8.145   9.200   2.683
  482DOPC   C4B 5778   8.257   9.113   3.164
  483DOPC   NC3 5779   0.562   7.398   1.137
  483DOPC   PO4 5780   0.628   7.014   1.245
  483DOPC   GL1 5781   0.807   6.845   1.594
  483DOPC   GL2 5782   1.100   6.890   1.539
  483DOPC   C1A 5783   0.741   7.155   1.908
  483DOPC   D2A 5784   0.938   7.479   2.247
  483DOPC   C3A 5785   1.053   7.547   2.699
  483DOPC   C4A 5786   1.180   7.657   3.165
  483DOPC   C1B 5787   1.262   7.215   1.845
  483DOPC   D2B 5788   1.460   7.569   2.183
  483DOPC   C3B 5789   1.570   7.548   2.656
  483DOPC   C4B 5790   1.555   7.276   3.083
  484DOPC   NC3 5791   4.531   5.256   1.092
  484DOPC   PO4 5792   4.681   5.584   1.276
  484DOPC   GL1 5793   4.426   5.492   1.604
  484DOPC   GL2 5794   4.453   5.197   1.558
  484DOPC   C1A 5795   4.306   5.621   2.021
  484DOPC   D2A 5796   4.385   5.775   2.501
  484DOPC   C3A 5797   4.336   5.557   2.929
  484DOPC   C4A 5798   4.248   5.329   3.376
  484DOPC   C1B 5799   4.340   5.100   1.971
  484DOPC   D2B 5800   4.333   5.258   2.450
  484DOPC   C3B 5801   4.302   5.024   2.859
  484DOPC   C4B 5802   4.056   4.859   3.261
  485DOPC   NC3 5803  10.938   2.115   1.220
  485DOPC   PO4 5804  11.120   1.774   1.287
  485DOPC   GL1 5805  11.299   1.961   1.594
  485DOPC   GL2 5806  11.318   2.239   1.475
  485DOPC   C1A 5807  11.166   2.030   1.996
  485DOPC   D2A 5808  11.062   2.188   2.451
  485DOPC   C3A 5809  10.925   2.182   2.906
  485DOPC   C4A 5810  10.805   2.079   3.379
  485DOPC   C1B 5811  11.446   2.421   1.878
  485DOPC   D2B 5812  11.480   2.500   2.382
  485DOPC   C3B 5813  11.421   2.260   2.796
  485DOPC   C4B 5814  11.299   2.049   3.247
  486DOPC   NC3 5815  14.693   6.693   1.060
  486DOPC   PO4 5816  14.993   6.899   1.246
  486DOPC   GL1 5817  14.994   6.835   1.704
  486DOPC   GL2 5818  15.291   6.770   1.684
  486DOPC   C1A 5819  14.868   6.803   2.154
  486DOPC   D2A 5820  14.776   6.812   2.654
  486DOPC   C3A 5821  14.767   6.643   3.109
  486DOPC   C4A 5822  14.854   6.360   3.529
  486DOPC   C1B 5823  15.581   6.868   2.023
  486DOPC   D2B 5824  15.607   7.143   2.440
  486DOPC   C3B 5825  15.479   6.958   2.857
  486DOPC   C4B 5826  15.277   6.768   3.275
  487DOPC   NC3 5827   3.817   7.177   1.124
  487DOPC   PO4 5828   4.115   7.438   1.180
  487DOPC   GL1 5829   3.996   7.297   1.601
  487DOPC   GL2 5830   3.744   7.472   1.520
  487DOPC   C1A 5831   4.008   7.299   2.069
  487DOPC   D2A 5832   4.048   7.394   2.584
  487DOPC   C3A 5833   3.906   7.478   3.043
  487DOPC   C4A 5834   3.592   7.519   3.435
  487DOPC   C1B 5835   3.533   7.604   1.894
  487DOPC   D2B 5836   3.607   7.445   2.362
  487DOPC   C3B 5837   3.511   7.275   2.798
  487DOPC   C4B 5838   3.312   7.133   3.236
  488DOPC   NC3 5839  17.668   6.909   1.038
  488DOPC   PO4 5840  17.421   7.181   1.195
  488DOPC   GL1 5841  17.320   7.111   1.607
  488DOPC   GL2 5842  17.036   7.105   1.527
  488DOPC   C1A 5843  17.412   7.040   2.037
  488DOPC   D2A 5844  17.675   6.869   2.418
  488DOPC   C3A 5845  17.554   6.739   2.852
  488DOPC   C4A 5846  17.249   6.754   3.245
  488DOPC   C1B 5847  16.986   6.808   1.860
  488DOPC   D2B 5848  17.225   6.588   2.251
  488DOPC   C3B 5849  17.100   6.509   2.701
  488DOPC   C4B 5850  16.967   6.315   3.143
  489DOPC   NC3 5851   9.387   7.971   1.081
  489DOPC   PO4 5852   9.781   8.027   1.134
  489DOPC   GL1 5853   9.797   8.017   1.566
  489DOPC   GL2 5854   9.476   8.114   1.545
  489DOPC   C1A 5855  10.000   7.857   1.942
  489DOPC   D2A 5856  10.144   7.861   2.439
  489DOPC   C3A 5857  10.116   8.184   2.811
  489DOPC   C4A 5858  10.041   8.588   3.114
  489DOPC   C1B 5859   9.212   8.136   1.919
  489DOPC   D2B 5860   9.012   8.055   2.379
  489DOPC   C3B 5861   9.197   8.070   2.808
  489DOPC   C4B 5862   9.446   8.119   3.234
  490DOPC   NC3 5863  18.456   9.436   1.095
  490DOPC   PO4 5864  18.766   9.277   1.304
  490DOPC   GL1 5865  18.708   9.451   1.703
  490DOPC   GL2 5866  18.500   9.648   1.583
  490DOPC   C1A 5867  18.734   9.518   2.156
  490DOPC   D2A 5868  18.759   9.628   2.652
  490DOPC   C3A 5869  18.774   9.401   3.076
  490DOPC   C4A 5870  18.730   9.296   3.569
  490DOPC   C1B 5871  18.357   9.893   1.945
  490DOPC   D2B 5872  18.207   0.098   2.382
  490DOPC   C3B 5873  18.394   9.973   2.794
  490DOPC   C4B 5874  18.648   9.883   3.222
  491DOPC   NC3 5875   7.549   9.557   1.279
  491DOPC   PO4 5876   7.285   9.809   1.125
  491DOPC   GL1 5877   7.194   9.867   1.529
  491DOPC   GL2 5878   7.106   9.566   1.496
  491DOPC   C1A 5879   7.394   9.836   1.937
  491DOPC   D2A 5880   7.576   9.899   2.397
  491DOPC   C3A 5881   7.356   9.749   2.786
  491DOPC   C4A 5882   7.121   9.724   3.227
  491DOPC   C1B 5883   7.084   9.430   1.890
  491DOPC   D2B 5884   7.143   9.408   2.387
  491DOPC   C3B 5885   6.984   9.389   2.841
  491DOPC   C4B 5886   6.878   9.287   3.328
  492DOPC   NC3 5887   0.509   2.766   1.044
  492DOPC   PO4 5888   0.212   2.813   1.314
  492DOPC   GL1 5889   0.350   3.099   1.630
  492DOPC   GL2 5890   0.623   2.944   1.599
  492DOPC   C1A 5891   0.296   2.950   2.033
  492DOPC   D2A 5892   0.325   2.558   2.345
  492DOPC   C3A 5893   0.324   2.565   2.815
  492DOPC   C4A 5894   0.329   2.591   3.298
  492DOPC   C1B 5895   0.722   2.618   1.915
  492DOPC   D2B 5896   0.781   2.335   2.346
  492DOPC   C3B 5897   0.784   2.326   2.824
  492DOPC   C4B 5898   0.807   2.395   3.316
  493DOPC   NC3 5899  10.618   4.975   1.231
  493DOPC   PO4 5900  10.390   4.797   1.507
  493DOPC   GL1 5901  10.446   5.112   1.823
  493DOPC   GL2 5902  10.653   5.267   1.658
  493DOPC   C1A 5903  10.527   5.064   2.269
  493DOPC   D2A 5904  10.648   4.862   2.712
  493DOPC   C3A 5905  10.459   4.666   3.092
  493DOPC   C4A 5906  10.276   4.619   3.545
  493DOPC   C1B 5907  10.891   5.347   2.046
  493DOPC   D2B 5908  10.833   5.458   2.540
  493DOPC   C3B 5909  10.596   5.364   2.936
  493DOPC   C4B 5910  10.503   5.115   3.354
  494DOPC   NC3 5911  17.354   4.064   1.268
  494DOPC   PO4 5912  17.567   3.862   1.533
  494DOPC   GL1 5913  17.283   4.095   1.750
  494DOPC   GL2 5914  17.064   3.902   1.662
  494DOPC   C1A 5915  17.467   4.050   2.155
  494DOPC   D2A 5916  17.790   3.723   2.349
  494DOPC   C3A 5917  17.903   3.878   2.771
  494DOPC   C4A 5918  17.763   4.137   3.165
  494DOPC   C1B 5919  16.949   3.895   2.085
  494DOPC   D2B 5920  16.723   3.894   2.537
  494DOPC   C3B 5921  16.957   3.961   2.941
  494DOPC   C4B 5922  17.255   4.205   3.275
  495DOPC   NC3 5923  18.144   0.361   0.995
  495DOPC   PO4 5924  17.950   0.646   1.197
  495DOPC   GL1 5925  18.188   0.808   1.539
  495DOPC   GL2 5926  18.238   0.502   1.579
  495DOPC   C1A 5927  18.196   0.865   1.973
  495DOPC   D2A 5928  18.193   0.640   2.426
  495DOPC   C3A 5929  18.173   0.757   2.886
  495DOPC   C4A 5930  18.017   0.751   3.359
  495DOPC   C1B 5931  18.047   0.366   1.965
  495DOPC   D2B 5932  17.739   0.305   2.370
  495DOPC   C3B 5933  17.945   0.306   2.797
  495DOPC   C4B 5934  18.271   0.308   3.176
  496DOPC   NC3 5935  17.930   8.771   1.003
  496DOPC   PO4 5936  18.094   9.096   1.154
  496DOPC   GL1 5937  18.343   9.228   1.510
  496DOPC   GL2 5938  18.101   9.434   1.493
  496DOPC   C1A 5939  18.308   9.379   1.922
  496DOPC   D2A 5940  18.254   9.590   2.369
  496DOPC   C3A 5941  18.298   9.460   2.810
  496DOPC   C4A 5942  18.304   9.347   3.278
  496DOPC   C1B 5943  17.837   9.532   1.861
  496DOPC   D2B 5944  17.740   9.742   2.310
  496DOPC   C3B 5945  17.915   9.789   2.741
  496DOPC   C4B 5946  18.122   9.814   3.198
  497DOPC   NC3 5947   2.448   5.746   0.936
  497DOPC   PO4 5948   2.117   5.827   1.148
  497DOPC   GL1 5949   2.211   5.566   1.467
  497DOPC   GL2 5950   2.508   5.633   1.416
  497DOPC   C1A 5951   2.298   5.504   1.885
  497DOPC   D2A 5952   2.535   5.543   2.323
  497DOPC   C3A 5953   2.577   5.476   2.788
  497DOPC   C4A 5954   2.794   5.379   3.216
  497DOPC   C1B 5955   2.790   5.544   1.767
  497DOPC   D2B 5956   3.043   5.626   2.202
  497DOPC   C3B 5957   3.034   5.682   2.680
  497DOPC   C4B 5958   3.043   5.839   3.161
  498DOPC   NC3 5959  12.651   8.948   1.227
  498DOPC   PO4 5960  12.253   8.980   1.303
  498DOPC   GL1 5961  12.287   8.787   1.708
  498DOPC   GL2 5962  12.572   8.924   1.690
  498DOPC   C1A 5963  12.257   8.783   2.172
  498DOPC   D2A 5964  12.341   8.851   2.676
  498DOPC   C3A 5965  12.368   8.706   3.130
  498DOPC   C4A 5966  12.428   8.520   3.597
  498DOPC   C1B 5967  12.708   8.986   2.113
  498DOPC   D2B 5968  12.932   8.906   2.563
  498DOPC   C3B 5969  12.836   8.890   3.030
  498DOPC   C4B 5970  12.771   8.915   3.529
  499DOPC   NC3 5971  13.312   7.363   1.064
  499DOPC   PO4 5972  13.032   7.203   1.310
  499DOPC   GL1 5973  13.166   7.239   1.707
  499DOPC   GL2 5974  13.463   7.241   1.584
  499DOPC   C1A 5975  13.228   7.415   2.111
  499DOPC   D2A 5976  13.345   7.572   2.581
  499DOPC   C3A 5977  13.305   7.255   2.931
  499DOPC   C4A 5978  13.272   6.801   3.131
  499DOPC   C1B 5979  13.722   7.370   1.934
  499DOPC   D2B 5980  13.846   7.669   2.319
  499DOPC   C3B 5981  13.790   7.754   2.778
  499DOPC   C4B 5982  13.715   7.469   3.175
  500DOPC   NC3 5983   5.773   7.168   1.009
  500DOPC   PO4 5984   5.646   7.538   1.103
  500DOPC   GL1 5985   5.877   7.366   1.469
  500DOPC   GL2 5986   5.909   7.660   1.535
  500DOPC   C1A 5987   5.864   7.241   1.907
  500DOPC   D2A 5988   5.916   7.169   2.406
  500DOPC   C3A 5989   5.740   7.157   2.842
  500DOPC   C4A 5990   5.547   7.399   3.226
  500DOPC   C1B 5991   5.862   7.773   1.970
  500DOPC   D2B 5992   5.932   7.689   2.459
  500DOPC   C3B 5993   5.627   7.665   2.794
  500DOPC   C4B 5994   5.210   7.736   3.037
  501DOPC   NC3 5995   4.205   1.305   1.400
  501DOPC   PO4 5996   4.587   1.220   1.502
  501DOPC   GL1 5997   4.591   1.127   1.907
  501DOPC   GL2 5998   4.425   0.888   1.786
  501DOPC   C1A 5999   4.468   1.157   2.339
  501DOPC   D2A 6000   4.295   1.164   2.817
  501DOPC   C3A 6001   4.375   1.342   3.261
  501DOPC   C4A 6002   4.560   1.619   3.637
  501DOPC   C1B 6003   4.083   0.992   2.040
  501DOPC   D2B 6004   3.830   1.149   2.446
  501DOPC   C3B 6005   3.826   0.933   2.861
  501DOPC   C4B 6006   3.963   0.630   3.221
  502DOPC   NC3 6007  14.393   1.465   1.141
  502DOPC   PO4 6008  14.753   1.321   1.249
  502DOPC   GL1 6009  14.641   1.233   1.650
  502DOPC   GL2 6010  14.357   1.159   1.526
  502DOPC   C1A 6011  14.551   1.492   2.008
  502DOPC   D2A 6012  14.456   1.706   2.446
  502DOPC   C3A 6013  14.504   1.516   2.878
  502DOPC   C4A 6014  14.609   1.289   3.319
  502DOPC   C1B 6015  14.103   1.218   1.883
  502DOPC   D2B 6016  14.023   1.426   2.333
  502DOPC   C3B 6017  14.012   1.340   2.805
  502DOPC   C4B 6018  14.174   1.042   3.175
  503DOPC   NC3 6019  19.183   4.861   1.258
  503DOPC   PO4 6020  19.108   5.213   1.446
  503DOPC   GL1 6021  19.143   4.925   1.762
  503DOPC   GL2 6022  18.860   4.836   1.663
  503DOPC   C1A 6023  19.091   5.106   2.167
  503DOPC   D2A 6024  19.120   5.338   2.613
  503DOPC   C3A 6025  19.153   5.308   3.077
  503DOPC   C4A 6026  19.255   4.987   3.447
  503DOPC   C1B 6027  18.618   4.983   2.023
  503DOPC   D2B 6028  18.515   5.139   2.494
  503DOPC   C3B 6029  18.678   5.122   2.943
  503DOPC   C4B 6030  18.789   5.180   3.434
  504DOPC   NC3 6031   5.824   5.682   1.212
  504DOPC   PO4 6032   5.448   5.726   1.351
  504DOPC   GL1 6033   5.619   5.499   1.670
  504DOPC   GL2 6034   5.828   5.746   1.694
  504DOPC   C1A 6035   5.616   5.496   2.110
  504DOPC   D2A 6036   5.806   5.589   2.570
  504DOPC   C3A 6037   5.665   5.444   3.002
  504DOPC   C4A 6038   5.487   5.230   3.414
  504DOPC   C1B 6039   5.872   5.938   2.118
  504DOPC   D2B 6040   5.929   6.105   2.606
  504DOPC   C3B 6041   5.847   5.948   3.039
  504DOPC   C4B 6042   5.480   5.809   3.343
  505DOPC   NC3 6043  18.848   7.507   1.041
  505DOPC   PO4 6044  19.185   7.610   1.215
  505DOPC   GL1 6045  19.016   7.663   1.610
  505DOPC   GL2 6046  18.962   7.359   1.661
  505DOPC   C1A 6047  18.867   7.777   2.010
  505DOPC   D2A 6048  18.714   7.601   2.454
  505DOPC   C3A 6049  18.680   7.600   2.921
  505DOPC   C4A 6050  19.045   7.653   3.249
  505DOPC   C1B 6051  18.906   7.256   2.128
  505DOPC   D2B 6052  18.992   7.220   2.652
  505DOPC   C3B 6053  18.924   7.155   3.135
  505DOPC   C4B 6054  18.847   7.001   3.623
  506DOPC   NC3 6055  14.495   8.014   1.096
  506DOPC   PO4 6056  14.752   7.761   1.277
  506DOPC   GL1 6057  14.829   7.934   1.654
  506DOPC   GL2 6058  14.617   8.164   1.617
  506DOPC   C1A 6059  14.634   7.763   2.009
  506DOPC   D2A 6060  14.361   7.671   2.410
  506DOPC   C3A 6061  14.477   7.815   2.826
  506DOPC   C4A 6062  14.617   7.966   3.274
  506DOPC   C1B 6063  14.310   8.155   1.974
  506DOPC   D2B 6064  14.084   8.121   2.439
  506DOPC   C3B 6065  14.113   8.174   2.912
  506DOPC   C4B 6066  14.192   8.229   3.403
  507DOPC   NC3 6067  19.355   2.077   1.178
  507DOPC   PO4 6068  19.239   1.858   1.492
  507DOPC   GL1 6069  19.382   2.208   1.658
  507DOPC   GL2 6070  19.664   2.131   1.542
  507DOPC   C1A 6071  19.369   2.183   2.105
  507DOPC   D2A 6072  19.241   2.122   2.594
  507DOPC   C3A 6073  19.470   2.133   3.010
  507DOPC   C4A 6074  19.920   2.301   3.143
  507DOPC   C1B 6075  19.779   1.905   1.910
  507DOPC   D2B 6076  19.719   1.761   2.390
  507DOPC   C3B 6077  19.901   1.834   2.815
  507DOPC   C4B 6078  19.971   1.810   3.296
  508DOPC   NC3 6079   7.850   0.396   1.249
  508DOPC   PO4 6080   7.670   0.065   1.399
  508DOPC   GL1 6081   7.918   0.057   1.777
  508DOPC   GL2 6082   7.704   0.195   1.929
  508DOPC   C1A 6083   8.255   0.008   2.089
  508DOPC   D2A 6084   8.462   0.012   2.557
  508DOPC   C3A 6085   8.211   0.041   2.966
  508DOPC   C4A 6086   7.855   9.997   3.304
  508DOPC   C1B 6087   7.907   0.300   2.331
  508DOPC   D2B 6088   8.249   0.472   2.682
  508DOPC   C3B 6089   8.258   0.600   3.146
  508DOPC   C4B 6090   8.240   0.697   3.642
  509DOPC   NC3 6091   5.899   7.952   0.922
  509DOPC   PO4 6092   5.876   8.058   1.300
  509DOPC   GL1 6093   5.638   8.359   1.501
  509DOPC   GL2 6094   5.908   8.503   1.568
  509DOPC   C1A 6095   5.604   8.216   1.917
  509DOPC   D2A 6096   5.825   8.210   2.372
  509DOPC   C3A 6097   5.749   8.152   2.841
  509DOPC   C4A 6098   5.789   7.877   3.263
  509DOPC   C1B 6099   6.126   8.274   1.898
  509DOPC   D2B 6100   6.296   7.963   2.253
  509DOPC   C3B 6101   6.239   8.118   2.693
  509DOPC   C4B 6102   6.144   8.307   3.146
  510DOPC   NC3 6103   5.866   3.592   1.022
  510DOPC   PO4 6104   6.080   3.393   1.296
  510DOPC   GL1 6105   5.820   3.433   1.643
  510DOPC   GL2 6106   5.879   3.745   1.650
  510DOPC   C1A 6107   5.931   3.304   2.066
  510DOPC   D2A 6108   6.171   3.275   2.511
  510DOPC   C3A 6109   6.006   3.264   2.949
  510DOPC   C4A 6110   5.818   3.264   3.415
  510DOPC   C1B 6111   5.777   3.794   2.093
  510DOPC   D2B 6112   5.789   3.644   2.590
  510DOPC   C3B 6113   5.776   3.686   3.072
  510DOPC   C4B 6114   5.832   3.770   3.563
  511DOPC   NC3 6115   7.682   4.698   1.129
  511DOPC   PO4 6116   7.432   5.013   1.144
  511DOPC   GL1 6117   7.280   5.111   1.499
  511DOPC   GL2 6118   7.025   4.946   1.519
  511DOPC   C1A 6119   7.400   5.195   1.908
  511DOPC   D2A 6120   7.449   5.364   2.373
  511DOPC   C3A 6121   7.483   5.078   2.743
  511DOPC   C4A 6122   7.661   4.900   3.173
  511DOPC   C1B 6123   6.941   4.911   1.970
  511DOPC   D2B 6124   7.014   4.820   2.478
  511DOPC   C3B 6125   7.012   4.943   2.945
  511DOPC   C4B 6126   7.011   5.357   3.222
  512DOPC   NC3 6127  15.000   3.035   0.987
  512DOPC   PO4 6128  15.271   2.902   1.255
  512DOPC   GL1 6129  15.057   2.669   1.500
  512DOPC   GL2 6130  15.205   2.481   1.660
  512DOPC   C1A 6131  14.928   2.901   1.857
  512DOPC   D2A 6132  14.910   2.948   2.357
  512DOPC   C3A 6133  14.871   3.096   2.798
  512DOPC   C4A 6134  15.034   3.230   3.251
  512DOPC   C1B 6135  15.052   2.473   2.107
  512DOPC   D2B 6136  14.967   2.485   2.613
  512DOPC   C3B 6137  15.196   2.730   2.949
  512DOPC   C4B 6138  15.471   2.939   3.303
  513DOPC   NC3 6139   1.085   8.209   1.167
  513DOPC   PO4 6140   1.393   8.416   1.028
  513DOPC   GL1 6141   1.645   8.489   1.386
  513DOPC   GL2 6142   1.460   8.227   1.465
  513DOPC   C1A 6143   1.605   8.503   1.828
  513DOPC   D2A 6144   1.427   8.434   2.280
  513DOPC   C3A 6145   1.520   8.486   2.735
  513DOPC   C4A 6146   1.665   8.538   3.204
  513DOPC   C1B 6147   1.319   8.077   1.877
  513DOPC   D2B 6148   1.158   7.971   2.349
  513DOPC   C3B 6149   1.303   8.002   2.796
  513DOPC   C4B 6150   1.433   8.090   3.275
  514DOPC   NC3 6151   1.797   8.703   0.952
  514DOPC   PO4 6152   1.520   8.905   1.149
  514DOPC   GL1 6153   1.770   9.057   1.470
  514DOPC   GL2 6154   1.989   8.837   1.378
  514DOPC   C1A 6155   1.770   8.978   1.910
  514DOPC   D2A 6156   1.759   8.828   2.391
  514DOPC   C3A 6157   1.713   8.975   2.837
  514DOPC   C4A 6158   1.689   9.301   3.215
  514DOPC   C1B 6159   2.214   8.784   1.769
  514DOPC   D2B 6160   2.284   8.786   2.292
  514DOPC   C3B 6161   2.235   8.890   2.768
  514DOPC   C4B 6162   2.027   8.902   3.236
  515DOPC   NC3 6163  17.369   5.044   1.119
  515DOPC   PO4 6164  17.008   5.142   1.262
  515DOPC   GL1 6165  17.079   5.144   1.693
  515DOPC   GL2 6166  17.376   5.034   1.638
  515DOPC   C1A 6167  17.022   5.166   2.152
  515DOPC   D2A 6168  16.972   5.319   2.641
  515DOPC   C3A 6169  16.926   5.139   3.091
  515DOPC   C4A 6170  17.009   4.751   3.415
  515DOPC   C1B 6171  17.550   4.948   2.065
  515DOPC   D2B 6172  17.859   4.845   2.464
  515DOPC   C3B 6173  17.684   4.841   2.903
  515DOPC   C4B 6174  17.422   5.037   3.279
  516DOPC   NC3 6175  15.728   5.082   1.070
  516DOPC   PO4 6176  15.459   4.957   1.333
  516DOPC   GL1 6177  15.316   5.156   1.696
  516DOPC   GL2 6178  15.021   5.093   1.605
  516DOPC   C1A 6179  15.310   5.049   2.138
  516DOPC   D2A 6180  15.302   4.978   2.633
  516DOPC   C3A 6181  15.376   5.131   3.071
  516DOPC   C4A 6182  15.318   5.133   3.564
  516DOPC   C1B 6183  14.826   4.959   1.994
  516DOPC   D2B 6184  14.772   4.916   2.496
  516DOPC   C3B 6185  14.875   5.055   2.936
  516DOPC   C4B 6186  14.868   5.279   3.385
  517DOPC   NC3 6187   8.993   0.680   1.090
  517DOPC   PO4 6188   8.723   0.975   1.136
  517DOPC   GL1 6189   8.608   1.143   1.510
  517DOPC   GL2 6190   8.806   1.326   1.578
  517DOPC   C1A 6191   8.532   1.047   1.934
  517DOPC   D2A 6192   8.704   1.060   2.411
  517DOPC   C3A 6193   8.708   0.989   2.884
  517DOPC   C4A 6194   8.708   0.994   3.374
  517DOPC   C1B 6195   8.877   1.411   2.019
  517DOPC   D2B 6196   9.010   1.560   2.477
  517DOPC   C3B 6197   9.063   1.370   2.889
  517DOPC   C4B 6198   9.207   1.191   3.326
  518DOPC   NC3 6199  15.109   5.754   1.128
  518DOPC   PO4 6200  14.762   5.942   1.235
  518DOPC   GL1 6201  14.657   5.735   1.586
  518DOPC   GL2 6202  14.884   5.525   1.533
  518DOPC   C1A 6203  14.652   5.806   2.026
  518DOPC   D2A 6204  14.724   5.812   2.522
  518DOPC   C3A 6205  14.658   5.840   2.989
  518DOPC   C4A 6206  14.733   5.792   3.482
  518DOPC   C1B 6207  15.017   5.441   1.960
  518DOPC   D2B 6208  15.060   5.391   2.470
  518DOPC   C3B 6209  15.058   5.523   2.926
  518DOPC   C4B 6210  15.276   5.592   3.368
  519DOPC   NC3 6211  13.805   4.353   1.141
  519DOPC   PO4 6212  13.942   3.990   1.242
  519DOPC   GL1 6213  13.852   4.078   1.691
  519DOPC   GL2 6214  13.671   4.290   1.574
  519DOPC   C1A 6215  13.703   4.011   2.124
  519DOPC   D2A 6216  13.728   3.857   2.607
  519DOPC   C3A 6217  13.862   4.067   3.018
  519DOPC   C4A 6218  13.789   4.429   3.361
  519DOPC   C1B 6219  13.455   4.443   1.903
  519DOPC   D2B 6220  13.406   4.501   2.400
  519DOPC   C3B 6221  13.521   4.419   2.851
  519DOPC   C4B 6222  13.358   4.088   3.177
  520DOPC   NC3 6223   8.476   6.643   1.066
  520DOPC   PO4 6224   8.265   6.450   1.351
  520DOPC   GL1 6225   8.124   6.591   1.701
  520DOPC   GL2 6226   7.844   6.656   1.715
  520DOPC   C1A 6227   8.166   6.379   2.076
  520DOPC   D2A 6228   8.162   6.104   2.486
  520DOPC   C3A 6229   8.227   6.266   2.917
  520DOPC   C4A 6230   8.232   6.572   3.303
  520DOPC   C1B 6231   7.698   6.538   2.135
  520DOPC   D2B 6232   7.645   6.256   2.565
  520DOPC   C3B 6233   7.721   6.386   3.023
  520DOPC   C4B 6234   7.740   6.627   3.464
  521DOPC   NC3 6235  11.482   4.288   1.328
  521DOPC   PO4 6236  11.584   3.909   1.264
  521DOPC   GL1 6237  11.359   3.740   1.584
  521DOPC   GL2 6238  11.116   3.893   1.453
  521DOPC   C1A 6239  11.399   3.853   2.023
  521DOPC   D2A 6240  11.405   3.939   2.533
  521DOPC   C3A 6241  11.332   4.121   2.970
  521DOPC   C4A 6242  11.189   4.229   3.441
  521DOPC   C1B 6243  11.033   4.147   1.789
  521DOPC   D2B 6244  10.976   4.038   2.278
  521DOPC   C3B 6245  10.992   4.339   2.637
  521DOPC   C4B 6246  10.982   4.593   3.066
  522DOPC   NC3 6247  11.155   5.669   0.997
  522DOPC   PO4 6248  11.141   6.043   1.119
  522DOPC   GL1 6249  11.271   5.955   1.498
  522DOPC   GL2 6250  11.572   5.969   1.441
  522DOPC   C1A 6251  11.159   6.119   1.904
  522DOPC   D2A 6252  11.177   6.268   2.383
  522DOPC   C3A 6253  11.195   5.947   2.730
  522DOPC   C4A 6254  11.211   5.609   3.091
  522DOPC   C1B 6255  11.659   5.995   1.865
  522DOPC   D2B 6256  11.611   5.949   2.365
  522DOPC   C3B 6257  11.644   6.191   2.767
  522DOPC   C4B 6258  11.633   6.400   3.214
  523DOPC   NC3 6259   7.432   1.132   1.146
  523DOPC   PO4 6260   7.070   1.308   1.182
  523DOPC   GL1 6261   7.046   1.335   1.610
  523DOPC   GL2 6262   7.315   1.178   1.608
  523DOPC   C1A 6263   6.991   1.483   2.027
  523DOPC   D2A 6264   6.953   1.640   2.503
  523DOPC   C3A 6265   7.007   1.479   2.951
  523DOPC   C4A 6266   6.990   1.418   3.455
  523DOPC   C1B 6267   7.458   1.264   2.020
  523DOPC   D2B 6268   7.311   1.274   2.502
  523DOPC   C3B 6269   7.500   1.231   2.931
  523DOPC   C4B 6270   7.813   0.967   3.219
  524DOPC   NC3 6271  19.432   6.370   1.165
  524DOPC   PO4 6272  19.728   6.629   1.232
  524DOPC   GL1 6273  19.752   6.428   1.572
  524DOPC   GL2 6274  19.513   6.280   1.643
  524DOPC   C1A 6275  19.832   6.713   1.899
  524DOPC   D2A 6276   0.069   6.655   2.334
  524DOPC   C3A 6277  19.982   6.710   2.792
  524DOPC   C4A 6278  19.649   6.766   3.149
  524DOPC   C1B 6279  19.519   6.356   2.098
  524DOPC   D2B 6280  19.555   6.511   2.583
  524DOPC   C3B 6281  19.421   6.320   2.998
  524DOPC   C4B 6282  19.098   6.265   3.372
  525DOPC   NC3 6283  15.254   1.150   1.193
  525DOPC   PO4 6284  15.209   1.501   1.005
  525DOPC   GL1 6285  15.354   1.563   1.424
  525DOPC   GL2 6286  15.087   1.480   1.523
  525DOPC   C1A 6287  15.432   1.671   1.828
  525DOPC   D2A 6288  15.268   1.683   2.303
  525DOPC   C3A 6289  15.229   1.625   2.771
  525DOPC   C4A 6290  15.098   1.524   3.241
  525DOPC   C1B 6291  15.036   1.359   1.955
  525DOPC   D2B 6292  14.865   1.392   2.443
  525DOPC   C3B 6293  14.920   1.202   2.883
  525DOPC   C4B 6294  15.057   1.019   3.337
  526DOPC   NC3 6295   8.249   1.125   1.206
  526DOPC   PO4 6296   8.312   1.522   1.165
  526DOPC   GL1 6297   8.332   1.807   1.468
  526DOPC   GL2 6298   8.038   1.795   1.557
  526DOPC   C1A 6299   8.457   1.614   1.835
  526DOPC   D2A 6300   8.329   1.407   2.278
  526DOPC   C3A 6301   8.511   1.442   2.716
  526DOPC   C4A 6302   8.672   1.506   3.183
  526DOPC   C1B 6303   7.941   1.551   1.923
  526DOPC   D2B 6304   7.795   1.472   2.395
  526DOPC   C3B 6305   7.990   1.374   2.810
  526DOPC   C4B 6306   8.286   1.173   3.148
  527DOPC   NC3 6307  19.655   7.482   1.089
  527DOPC   PO4 6308  19.618   7.140   1.283
  527DOPC   GL1 6309  19.405   7.411   1.559
  527DOPC   GL2 6310  19.679   7.507   1.570
  527DOPC   C1A 6311  19.324   7.511   1.974
  527DOPC   D2A 6312  19.452   7.452   2.454
  527DOPC   C3A 6313  19.466   7.583   2.911
  527DOPC   C4A 6314  19.510   7.697   3.391
  527DOPC   C1B 6315  19.761   7.247   1.932
  527DOPC   D2B 6316  19.658   6.971   2.349
  527DOPC   C3B 6317  19.673   7.127   2.792
  527DOPC   C4B 6318  19.783   7.268   3.265
  528DOPC   NC3 6319   7.388   8.847   1.151
  528DOPC   PO4 6320   7.162   9.179   1.223
  528DOPC   GL1 6321   7.410   9.214   1.586
  528DOPC   GL2 6322   7.262   8.945   1.645
  528DOPC   C1A 6323   7.547   9.292   2.008
  528DOPC   D2A 6324   7.637   9.398   2.493
  528DOPC   C3A 6325   7.491   9.253   2.909
  528DOPC   C4A 6326   7.371   9.098   3.353
  528DOPC   C1B 6327   7.148   8.959   2.079
  528DOPC   D2B 6328   7.224   8.945   2.579
  528DOPC   C3B 6329   7.034   8.908   3.010
  528DOPC   C4B 6330   6.998   8.780   3.492
  529DOPC   NC3 6331  16.968   7.414   1.160
  529DOPC   PO4 6332  16.818   7.734   1.344
  529DOPC   GL1 6333  17.115   7.709   1.660
  529DOPC   GL2 6334  17.278   7.527   1.501
  529DOPC   C1A 6335  17.231   7.637   2.099
  529DOPC   D2A 6336  17.434   7.558   2.558
  529DOPC   C3A 6337  17.524   7.646   3.019
  529DOPC   C4A 6338  17.450   7.672   3.516
  529DOPC   C1B 6339  17.585   7.441   1.813
  529DOPC   D2B 6340  17.822   7.350   2.281
  529DOPC   C3B 6341  17.789   7.249   2.754
  529DOPC   C4B 6342  17.576   7.161   3.200
  530DOPC   NC3 6343   2.155   0.485   0.888
  530DOPC   PO4 6344   2.009   0.127   1.009
  530DOPC   GL1 6345   1.891   0.096   1.424
  530DOPC   GL2 6346   1.894   0.414   1.434
  530DOPC   C1A 6347   1.978   0.107   1.855
  530DOPC   D2A 6348   1.832   0.265   2.307
  530DOPC   C3A 6349   1.961   0.221   2.753
  530DOPC   C4A 6350   1.938   0.273   3.240
  530DOPC   C1B 6351   1.739   0.592   1.831
  530DOPC   D2B 6352   1.582   0.725   2.301
  530DOPC   C3B 6353   1.759   0.700   2.739
  530DOPC   C4B 6354   2.133   0.734   3.075
  531DOPC   NC3 6355  15.220   4.516   1.320
  531DOPC   PO4 6356  15.583   4.384   1.195
  531DOPC   GL1 6357  15.592   4.333   1.607
  531DOPC   GL2 6358  15.364   4.113   1.575
  531DOPC   C1A 6359  15.425   4.561   1.954
  531DOPC   D2A 6360  15.132   4.572   2.362
  531DOPC   C3A 6361  15.058   4.572   2.833
  531DOPC   C4A 6362  15.189   4.688   3.296
  531DOPC   C1B 6363  15.141   4.008   1.959
  531DOPC   D2B 6364  14.842   3.930   2.370
  531DOPC   C3B 6365  14.825   4.083   2.823
  531DOPC   C4B 6366  14.800   4.294   3.268
  532DOPC   NC3 6367   1.888   7.558   1.121
  532DOPC   PO4 6368   2.167   7.844   1.173
  532DOPC   GL1 6369   2.213   7.898   1.625
  532DOPC   GL2 6370   2.092   7.628   1.679
  532DOPC   C1A 6371   2.290   8.011   2.060
  532DOPC   D2A 6372   2.192   7.927   2.550
  532DOPC   C3A 6373   2.123   7.712   2.968
  532DOPC   C4A 6374   2.116   7.577   3.435
  532DOPC   C1B 6375   2.105   7.536   2.147
  532DOPC   D2B 6376   2.244   7.366   2.617
  532DOPC   C3B 6377   2.117   7.194   3.060
  532DOPC   C4B 6378   1.873   7.137   3.501
  533DOPC   NC3 6379   1.678   3.597   1.105
  533DOPC   PO4 6380   1.530   3.270   1.296
  533DOPC   GL1 6381   1.775   3.296   1.662
  533DOPC   GL2 6382   1.751   3.599   1.566
  533DOPC   C1A 6383   1.859   3.372   2.100
  533DOPC   D2A 6384   1.883   3.660   2.520
  533DOPC   C3A 6385   2.007   3.625   2.977
  533DOPC   C4A 6386   2.129   3.656   3.465
  533DOPC   C1B 6387   1.526   3.690   1.916
  533DOPC   D2B 6388   1.363   3.702   2.393
  533DOPC   C3B 6389   1.478   3.698   2.865
  533DOPC   C4B 6390   1.650   3.774   3.327
  534DOPC   NC3 6391  19.295   6.836   1.044
  534DOPC   PO4 6392  19.086   7.096   1.276
  534DOPC   GL1 6393  19.320   6.971   1.578
  534DOPC   GL2 6394  19.349   6.689   1.510
  534DOPC   C1A 6395  19.317   6.989   1.986
  534DOPC   D2A 6396  19.163   6.796   2.408
  534DOPC   C3A 6397  19.193   6.778   2.873
  534DOPC   C4A 6398  19.194   6.757   3.364
  534DOPC   C1B 6399  19.095   6.550   1.849
  534DOPC   D2B 6400  18.749   6.558   2.230
  534DOPC   C3B 6401  18.701   6.729   2.678
  534DOPC   C4B 6402  18.701   6.693   3.177
  535DOPC   NC3 6403  19.544   8.541   1.008
  535DOPC   PO4 6404  19.510   8.799   1.301
  535DOPC   GL1 6405  19.497   8.435   1.547
  535DOPC   GL2 6406  19.738   8.327   1.405
  535DOPC   C1A 6407  19.553   8.407   1.989
  535DOPC   D2A 6408  19.633   8.452   2.487
  535DOPC   C3A 6409  19.510   8.792   2.806
  535DOPC   C4A 6410  19.219   9.053   3.119
  535DOPC   C1B 6411   0.022   8.472   1.728
  535DOPC   D2B 6412   0.173   8.716   2.144
  535DOPC   C3B 6413   0.098   8.703   2.611
  535DOPC   C4B 6414  19.977   8.641   3.089
  536DOPC   NC3 6415  11.294   6.502   1.060
  536DOPC   PO4 6416  11.619   6.423   1.280
  536DOPC   GL1 6417  11.472   6.351   1.650
  536DOPC   GL2 6418  11.182   6.409   1.543
  536DOPC   C1A 6419  11.575   6.451   2.081
  536DOPC   D2A 6420  11.546   6.628   2.548
  536DOPC   C3A 6421  11.222   6.500   2.860
  536DOPC   C4A 6422  10.848   6.367   3.147
  536DOPC   C1B 6423  11.160   6.704   1.887
  536DOPC   D2B 6424  11.265   7.099   2.202
  536DOPC   C3B 6425  11.323   7.055   2.666
  536DOPC   C4B 6426  11.475   6.888   3.099
  537DOPC   NC3 6427  19.655   0.434   1.075
  537DOPC   PO4 6428  19.359   0.709   1.073
  537DOPC   GL1 6429  19.314   0.795   1.495
  537DOPC   GL2 6430  19.567   0.639   1.582
  537DOPC   C1A 6431  19.120   0.591   1.847
  537DOPC   D2A 6432  19.158   0.436   2.336
  537DOPC   C3A 6433  19.252   0.499   2.816
  537DOPC   C4A 6434  19.412   0.639   3.286
  537DOPC   C1B 6435  19.600   0.532   2.039
  537DOPC   D2B 6436  19.651   0.359   2.524
  537DOPC   C3B 6437  19.719   0.343   3.002
  537DOPC   C4B 6438  19.702   0.274   3.511
  538DOPC   NC3 6439   1.518   9.391   1.228
  538DOPC   PO4 6440   1.593   9.686   1.490
  538DOPC   GL1 6441   1.604   9.376   1.782
  538DOPC   GL2 6442   1.354   9.256   1.650
  538DOPC   C1A 6443   1.556   9.345   2.234
  538DOPC   D2A 6444   1.494   9.423   2.730
  538DOPC   C3A 6445   1.308   9.722   3.048
  538DOPC   C4A 6446   1.022   0.105   3.207
  538DOPC   C1B 6447   1.088   9.432   1.950
  538DOPC   D2B 6448   0.931   9.736   2.324
  538DOPC   C3B 6449   0.890   9.759   2.786
  538DOPC   C4B 6450   0.860   9.628   3.266
  539DOPC   NC3 6451   9.727   1.542   0.951
  539DOPC   PO4 6452   9.630   1.769   1.268
  539DOPC   GL1 6453   9.639   1.575   1.661
  539DOPC   GL2 6454   9.437   1.792   1.772
  539DOPC   C1A 6455   9.876   1.538   2.034
  539DOPC   D2A 6456  10.027   1.654   2.496
  539DOPC   C3A 6457   9.775   1.896   2.820
  539DOPC   C4A 6458   9.557   1.957   3.269
  539DOPC   C1B 6459   9.520   1.965   2.215
  539DOPC   D2B 6460   9.504   2.304   2.619
  539DOPC   C3B 6461   9.593   2.428   3.076
  539DOPC   C4B 6462   9.710   2.347   3.562
  540DOPC   NC3 6463   8.152   3.347   1.211
  540DOPC   PO4 6464   7.790   3.317   1.376
  540DOPC   GL1 6465   7.974   3.389   1.731
  540DOPC   GL2 6466   8.107   3.655   1.636
  540DOPC   C1A 6467   7.974   3.318   2.166
  540DOPC   D2A 6468   7.808   3.243   2.634
  540DOPC   C3A 6469   7.657   3.419   3.049
  540DOPC   C4A 6470   7.646   3.441   3.544
  540DOPC   C1B 6471   8.210   3.777   2.056
  540DOPC   D2B 6472   7.988   3.721   2.492
  540DOPC   C3B 6473   8.087   3.687   2.941
  540DOPC   C4B 6474   8.127   3.616   3.428
  541DOPC   NC3 6475   9.799   7.187   1.071
  541DOPC   PO4 6476   9.537   7.488   1.010
  541DOPC   GL1 6477   9.603   7.659   1.396
  541DOPC   GL2 6478   9.720   7.383   1.487
  541DOPC   C1A 6479   9.509   7.722   1.821
  541DOPC   D2A 6480   9.658   7.664   2.303
  541DOPC   C3A 6481   9.541   7.656   2.764
  541DOPC   C4A 6482   9.407   7.590   3.240
  541DOPC   C1B 6483   9.834   7.334   1.920
  541DOPC   D2B 6484  10.002   7.246   2.391
  541DOPC   C3B 6485  10.002   7.366   2.854
  541DOPC   C4B 6486   9.867   7.341   3.337
  542DOPC   NC3 6487   7.439   4.222   1.079
  542DOPC   PO4 6488   7.841   4.221   1.071
  542DOPC   GL1 6489   7.752   4.349   1.473
  542DOPC   GL2 6490   7.546   4.111   1.510
  542DOPC   C1A 6491   7.686   4.534   1.878
  542DOPC   D2A 6492   7.521   4.815   2.274
  542DOPC   C3A 6493   7.592   4.579   2.681
  542DOPC   C4A 6494   7.557   4.395   3.143
  542DOPC   C1B 6495   7.377   4.105   1.925
  542DOPC   D2B 6496   7.255   4.354   2.345
  542DOPC   C3B 6497   7.159   4.301   2.802
  542DOPC   C4B 6498   7.127   4.162   3.277
  543DOPC   NC3 6499   2.515   4.530   1.167
  543DOPC   PO4 6500   2.783   4.820   1.209
  543DOPC   GL1 6501   2.998   4.698   1.588
  543DOPC   GL2 6502   2.911   4.429   1.473
  543DOPC   C1A 6503   2.874   4.697   2.028
  543DOPC   D2A 6504   2.758   4.715   2.523
  543DOPC   C3A 6505   3.000   4.679   2.946
  543DOPC   C4A 6506   3.110   4.632   3.440
  543DOPC   C1B 6507   2.631   4.313   1.799
  543DOPC   D2B 6508   2.542   4.223   2.295
  543DOPC   C3B 6509   2.558   4.314   2.770
  543DOPC   C4B 6510   2.682   4.418   3.238
  544DOPC   NC3 6511   0.224   7.847   1.131
  544DOPC   PO4 6512  19.871   7.876   1.325
  544DOPC   GL1 6513   0.049   7.698   1.690
  544DOPC   GL2 6514   0.264   7.905   1.622
  544DOPC   C1A 6515  19.962   7.673   2.129
  544DOPC   D2A 6516  19.961   7.621   2.634
  544DOPC   C3A 6517   0.278   7.697   2.985
  544DOPC   C4A 6518   0.505   7.844   3.403
  544DOPC   C1B 6519   0.408   7.959   2.031
  544DOPC   D2B 6520   0.448   7.855   2.528
  544DOPC   C3B 6521   0.762   7.976   2.870
  544DOPC   C4B 6522   1.039   8.361   3.049
  545DOPC   NC3 6523   6.075   2.233   0.942
  545DOPC   PO4 6524   6.294   1.923   1.086
  545DOPC   GL1 6525   6.102   2.115   1.421
  545DOPC   GL2 6526   6.066   1.830   1.563
  545DOPC   C1A 6527   6.006   2.312   1.797
  545DOPC   D2A 6528   6.056   2.279   2.279
  545DOPC   C3A 6529   6.016   2.315   2.729
  545DOPC   C4A 6530   5.994   2.276   3.221
  545DOPC   C1B 6531   5.816   1.831   1.962
  545DOPC   D2B 6532   5.620   1.945   2.418
  545DOPC   C3B 6533   5.650   1.985   2.891
  545DOPC   C4B 6534   5.610   1.944   3.385
  546DOPC   NC3 6535  15.958   4.728   1.343
  546DOPC   PO4 6536  16.258   4.978   1.250
  546DOPC   GL1 6537  16.206   5.243   1.560
  546DOPC   GL2 6538  15.888   5.194   1.504
  546DOPC   C1A 6539  16.228   5.145   1.996
  546DOPC   D2A 6540  16.187   5.038   2.499
  546DOPC   C3A 6541  16.093   5.102   2.972
  546DOPC   C4A 6542  15.799   5.344   3.316
  546DOPC   C1B 6543  15.757   5.019   1.900
  546DOPC   D2B 6544  15.723   4.803   2.356
  546DOPC   C3B 6545  15.725   4.778   2.832
  546DOPC   C4B 6546  15.705   4.814   3.325
  547DOPC   NC3 6547   1.197   1.256   1.142
  547DOPC   PO4 6548   1.531   1.141   1.342
  547DOPC   GL1 6549   1.369   0.991   1.690
  547DOPC   GL2 6550   1.101   1.148   1.631
  547DOPC   C1A 6551   1.362   1.127   2.102
  547DOPC   D2A 6552   1.143   1.088   2.558
  547DOPC   C3A 6553   1.328   1.055   2.994
  547DOPC   C4A 6554   1.632   0.734   3.240
  547DOPC   C1B 6555   0.848   1.179   2.014
  547DOPC   D2B 6556   0.700   1.342   2.483
  547DOPC   C3B 6557   0.842   1.309   2.945
  547DOPC   C4B 6558   1.055   1.321   3.401
  548DOPC   NC3 6559   6.672   8.945   1.124
  548DOPC   PO4 6560   6.439   9.246   1.263
  548DOPC   GL1 6561   6.702   9.330   1.624
  548DOPC   GL2 6562   6.831   9.047   1.567
  548DOPC   C1A 6563   6.666   9.208   2.065
  548DOPC   D2A 6564   6.713   8.997   2.524
  548DOPC   C3A 6565   6.556   9.113   2.958
  548DOPC   C4A 6566   6.346   9.314   3.372
  548DOPC   C1B 6567   6.701   8.734   1.893
  548DOPC   D2B 6568   6.447   8.566   2.315
  548DOPC   C3B 6569   6.370   8.650   2.782
  548DOPC   C4B 6570   6.243   8.806   3.245
  549DOPC   NC3 6571  12.230   7.582   1.090
  549DOPC   PO4 6572  12.189   7.913   1.314
  549DOPC   GL1 6573  12.358   7.697   1.618
  549DOPC   GL2 6574  12.215   7.430   1.538
  549DOPC   C1A 6575  12.213   7.699   2.020
  549DOPC   D2A 6576  12.044   7.433   2.406
  549DOPC   C3A 6577  12.091   7.534   2.857
  549DOPC   C4A 6578  12.213   7.452   3.328
  549DOPC   C1B 6579  11.980   7.246   1.877
  549DOPC   D2B 6580  11.788   6.994   2.271
  549DOPC   C3B 6581  11.847   7.063   2.737
  549DOPC   C4B 6582  11.939   7.046   3.224
  550DOPC   NC3 6583   7.925   5.182   1.079
  550DOPC   PO4 6584   7.817   5.549   1.221
  550DOPC   GL1 6585   7.648   5.459   1.609
  550DOPC   GL2 6586   7.725   5.155   1.541
  550DOPC   C1A 6587   7.816   5.485   2.036
  550DOPC   D2A 6588   7.914   5.197   2.452
  550DOPC   C3A 6589   7.899   5.321   2.913
  550DOPC   C4A 6590   7.979   5.454   3.386
  550DOPC   C1B 6591   7.897   4.982   1.936
  550DOPC   D2B 6592   8.012   4.681   2.342
  550DOPC   C3B 6593   8.040   4.813   2.798
  550DOPC   C4B 6594   8.175   4.997   3.235
  551DOPC   NC3 6595   2.348   9.997   1.358
  551DOPC   PO4 6596   2.351   0.400   1.330
  551DOPC   GL1 6597   2.275   0.714   1.623
  551DOPC   GL2 6598   2.594   0.753   1.593
  551DOPC   C1A 6599   2.225   0.532   2.030
  551DOPC   D2A 6600   2.337   0.144   2.342
  551DOPC   C3A 6601   2.485   0.268   2.774
  551DOPC   C4A 6602   2.567   0.486   3.215
  551DOPC   C1B 6603   2.735   0.492   1.936
  551DOPC   D2B 6604   2.855   0.305   2.393
  551DOPC   C3B 6605   2.943   0.501   2.819
  551DOPC   C4B 6606   2.988   0.782   3.233
  552DOPC   NC3 6607   1.890   6.592   1.128
  552DOPC   PO4 6608   1.523   6.713   1.233
  552DOPC   GL1 6609   1.467   6.473   1.595
  552DOPC   GL2 6610   1.772   6.529   1.634
  552DOPC   C1A 6611   1.435   6.483   2.035
  552DOPC   D2A 6612   1.330   6.534   2.532
  552DOPC   C3A 6613   1.626   6.611   2.905
  552DOPC   C4A 6614   1.942   6.691   3.285
  552DOPC   C1B 6615   1.928   6.668   2.040
  552DOPC   D2B 6616   2.168   6.873   2.447
  552DOPC   C3B 6617   2.217   6.657   2.865
  552DOPC   C4B 6618   2.227   6.265   3.186
  553DOPC   NC3 6619  18.710   4.200   1.127
  553DOPC   PO4 6620  19.070   4.342   1.223
  553DOPC   GL1 6621  18.926   4.388   1.618
  553DOPC   GL2 6622  18.839   4.090   1.581
  553DOPC   C1A 6623  18.937   4.574   2.038
  553DOPC   D2A 6624  18.904   4.775   2.509
  553DOPC   C3A 6625  19.143   4.496   2.811
  553DOPC   C4A 6626  19.322   4.068   3.016
  553DOPC   C1B 6627  18.838   4.024   2.001
  553DOPC   D2B 6628  18.815   4.259   2.437
  553DOPC   C3B 6629  18.823   4.090   2.865
  553DOPC   C4B 6630  18.759   4.189   3.334
  554DOPC   NC3 6631  11.930   3.981   0.925
  554DOPC   PO4 6632  12.274   3.914   1.109
  554DOPC   GL1 6633  11.993   3.683   1.388
  554DOPC   GL2 6634  12.229   3.485   1.386
  554DOPC   C1A 6635  11.873   3.728   1.835
  554DOPC   D2A 6636  11.859   3.761   2.357
  554DOPC   C3A 6637  11.789   3.828   2.839
  554DOPC   C4A 6638  11.604   3.832   3.311
  554DOPC   C1B 6639  12.296   3.433   1.826
  554DOPC   D2B 6640  12.118   3.323   2.294
  554DOPC   C3B 6641  12.093   3.425   2.766
  554DOPC   C4B 6642  12.062   3.523   3.256
  555DOPC   NC3 6643  18.992   1.059   1.255
  555DOPC   PO4 6644  19.006   1.401   1.458
  555DOPC   GL1 6645  18.891   1.283   1.846
  555DOPC   GL2 6646  19.095   1.070   1.756
  555DOPC   C1A 6647  18.897   1.324   2.298
  555DOPC   D2A 6648  18.866   1.281   2.812
  555DOPC   C3A 6649  18.734   1.458   3.238
  555DOPC   C4A 6650  18.656   1.671   3.684
  555DOPC   C1B 6651  19.334   0.987   2.089
  555DOPC   D2B 6652  19.488   0.865   2.527
  555DOPC   C3B 6653  19.281   0.987   2.925
  555DOPC   C4B 6654  19.008   0.965   3.334
  556DOPC   NC3 6655   1.803   8.119   0.941
  556DOPC   PO4 6656   1.512   7.902   1.113
  556DOPC   GL1 6657   1.760   7.865   1.489
  556DOPC   GL2 6658   1.881   8.116   1.395
  556DOPC   C1A 6659   1.796   7.924   1.943
  556DOPC   D2A 6660   1.692   8.019   2.439
  556DOPC   C3A 6661   1.800   8.086   2.907
  556DOPC   C4A 6662   1.944   8.059   3.391
  556DOPC   C1B 6663   2.054   8.318   1.713
  556DOPC   D2B 6664   1.961   8.396   2.190
  556DOPC   C3B 6665   2.066   8.429   2.642
  556DOPC   C4B 6666   2.188   8.429   3.129
  557DOPC   NC3 6667   1.993   1.893   1.018
  557DOPC   PO4 6668   2.227   2.063   1.295
  557DOPC   GL1 6669   1.909   2.102   1.577
  557DOPC   GL2 6670   1.850   1.802   1.489
  557DOPC   C1A 6671   1.950   1.995   2.007
  557DOPC   D2A 6672   2.073   1.839   2.458
  557DOPC   C3A 6673   2.072   2.018   2.886
  557DOPC   C4A 6674   2.135   2.315   3.267
  557DOPC   C1B 6675   1.695   1.585   1.850
  557DOPC   D2B 6676   1.606   1.653   2.344
  557DOPC   C3B 6677   1.753   1.630   2.802
  557DOPC   C4B 6678   1.921   1.618   3.273
  558DOPC   NC3 6679   0.564   9.752   1.114
  558DOPC   PO4 6680   0.584   9.389   1.286
  558DOPC   GL1 6681   0.441   9.488   1.665
  558DOPC   GL2 6682   0.475   9.793   1.631
  558DOPC   C1A 6683   0.587   9.435   2.079
  558DOPC   D2A 6684   0.605   9.377   2.573
  558DOPC   C3A 6685   0.474   9.450   3.015
  558DOPC   C4A 6686   0.379   9.556   3.493
  558DOPC   C1B 6687   0.516   9.961   2.061
  558DOPC   D2B 6688   0.467   9.952   2.573
  558DOPC   C3B 6689   0.514   9.964   3.060
  558DOPC   C4B 6690   0.649   0.006   3.547
  559DOPC   NC3 6691  14.327   9.668   1.234
  559DOPC   PO4 6692  14.580   9.926   1.419
  559DOPC   GL1 6693  14.435   9.687   1.730
  559DOPC   GL2 6694  14.129   9.743   1.648
  559DOPC   C1A 6695  14.608   9.531   2.117
  559DOPC   D2A 6696  14.888   9.439   2.536
  559DOPC   C3A 6697  14.780   9.489   2.997
  559DOPC   C4A 6698  14.516   9.842   3.238
  559DOPC   C1B 6699  13.832   9.670   1.968
  559DOPC   D2B 6700  13.694   9.504   2.420
  559DOPC   C3B 6701  13.697   9.447   2.875
  559DOPC   C4B 6702  13.931   9.602   3.270
  560DOPC   NC3 6703  17.561   2.915   1.335
  560DOPC   PO4 6704  17.530   2.522   1.410
  560DOPC   GL1 6705  17.879   2.454   1.629
  560DOPC   GL2 6706  17.874   2.771   1.682
  560DOPC   C1A 6707  17.967   2.352   2.039
  560DOPC   D2A 6708  18.074   2.152   2.483
  560DOPC   C3A 6709  18.039   2.431   2.852
  560DOPC   C4A 6710  18.006   2.694   3.272
  560DOPC   C1B 6711  18.013   2.885   2.100
  560DOPC   D2B 6712  18.052   2.905   2.605
  560DOPC   C3B 6713  18.170   3.130   3.002
  560DOPC   C4B 6714  18.324   3.356   3.409
  561DOPC   NC3 6715   6.844   6.677   1.194
  561DOPC   PO4 6716   6.798   7.070   1.264
  561DOPC   GL1 6717   6.584   6.959   1.593
  561DOPC   GL2 6718   6.456   6.714   1.479
  561DOPC   C1A 6719   6.776   6.760   1.926
  561DOPC   D2A 6720   6.712   6.534   2.357
  561DOPC   C3A 6721   6.797   6.725   2.774
  561DOPC   C4A 6722   6.918   7.006   3.164
  561DOPC   C1B 6723   6.314   6.526   1.870
  561DOPC   D2B 6724   6.224   6.420   2.357
  561DOPC   C3B 6725   6.304   6.474   2.826
  561DOPC   C4B 6726   6.542   6.610   3.244
  562DOPC   NC3 6727  13.455   1.943   1.140
  562DOPC   PO4 6728  13.184   1.663   1.239
  562DOPC   GL1 6729  13.431   1.814   1.596
  562DOPC   GL2 6730  13.278   2.071   1.581
  562DOPC   C1A 6731  13.605   1.677   2.009
  562DOPC   D2A 6732  13.595   1.605   2.517
  562DOPC   C3A 6733  13.640   1.747   2.967
  562DOPC   C4A 6734  13.683   1.817   3.463
  562DOPC   C1B 6735  13.441   2.152   1.991
  562DOPC   D2B 6736  13.551   2.216   2.488
  562DOPC   C3B 6737  13.347   2.157   2.921
  562DOPC   C4B 6738  13.095   2.049   3.340
  563DOPC   NC3 6739   5.332   9.032   1.278
  563DOPC   PO4 6740   4.968   8.882   1.271
  563DOPC   GL1 6741   4.851   8.845   1.652
  563DOPC   GL2 6742   4.762   8.543   1.627
  563DOPC   C1A 6743   5.148   8.890   1.994
  563DOPC   D2A 6744   5.514   8.976   2.345
  563DOPC   C3A 6745   5.530   9.118   2.797
  563DOPC   C4A 6746   5.317   9.177   3.242
  563DOPC   C1B 6747   4.791   8.467   2.055
  563DOPC   D2B 6748   4.949   8.435   2.532
  563DOPC   C3B 6749   4.764   8.551   2.950
  563DOPC   C4B 6750   4.585   8.722   3.380
  564DOPC   NC3 6751  16.515   2.964   1.107
  564DOPC   PO4 6752  16.269   2.732   1.314
  564DOPC   GL1 6753  16.646   2.692   1.497
  564DOPC   GL2 6754  16.593   2.414   1.573
  564DOPC   C1A 6755  16.790   2.906   1.828
  564DOPC   D2A 6756  16.760   2.973   2.319
  564DOPC   C3A 6757  16.802   2.916   2.784
  564DOPC   C4A 6758  16.627   2.794   3.226
  564DOPC   C1B 6759  16.548   2.490   2.006
  564DOPC   D2B 6760  16.570   2.529   2.506
  564DOPC   C3B 6761  16.646   2.348   2.940
  564DOPC   C4B 6762  16.774   2.347   3.422
  565DOPC   NC3 6763  16.452   7.432   1.068
  565DOPC   PO4 6764  16.295   7.686   1.326
  565DOPC   GL1 6765  16.323   7.358   1.575
  565DOPC   GL2 6766  16.626   7.307   1.507
  565DOPC   C1A 6767  16.404   7.471   1.994
  565DOPC   D2A 6768  16.585   7.308   2.433
  565DOPC   C3A 6769  16.428   7.365   2.872
  565DOPC   C4A 6770  16.221   7.400   3.322
  565DOPC   C1B 6771  16.884   7.316   1.897
  565DOPC   D2B 6772  17.072   7.238   2.369
  565DOPC   C3B 6773  16.967   7.536   2.742
  565DOPC   C4B 6774  17.051   7.789   3.175
  566DOPC   NC3 6775   4.927   8.387   1.208
  566DOPC   PO4 6776   4.953   7.993   1.120
  566DOPC   GL1 6777   4.867   7.825   1.526
  566DOPC   GL2 6778   4.957   8.119   1.628
  566DOPC   C1A 6779   4.745   7.809   1.953
  566DOPC   D2A 6780   4.691   8.026   2.403
  566DOPC   C3A 6781   4.792   7.992   2.864
  566DOPC   C4A 6782   4.824   7.879   3.341
  566DOPC   C1B 6783   5.132   8.092   2.068
  566DOPC   D2B 6784   5.219   7.953   2.553
  566DOPC   C3B 6785   5.237   8.252   2.929
  566DOPC   C4B 6786   5.255   8.623   3.268
  567DOPC   NC3 6787  17.294   3.297   1.137
  567DOPC   PO4 6788  17.137   3.628   1.283
  567DOPC   GL1 6789  17.288   3.503   1.651
  567DOPC   GL2 6790  17.203   3.223   1.612
  567DOPC   C1A 6791  17.352   3.563   2.086
  567DOPC   D2A 6792  17.333   3.609   2.590
  567DOPC   C3A 6793  17.446   3.768   3.018
  567DOPC   C4A 6794  17.586   3.824   3.507
  567DOPC   C1B 6795  17.196   3.087   2.042
  567DOPC   D2B 6796  17.252   2.922   2.504
  567DOPC   C3B 6797  17.284   3.172   2.898
  567DOPC   C4B 6798  17.422   3.380   3.327
  568DOPC   NC3 6799   6.527   5.182   1.039
  568DOPC   PO4 6800   6.265   5.475   1.106
  568DOPC   GL1 6801   6.343   5.518   1.519
  568DOPC   GL2 6802   6.639   5.579   1.460
  568DOPC   C1A 6803   6.306   5.791   1.862
  568DOPC   D2A 6804   6.323   5.888   2.347
  568DOPC   C3A 6805   6.265   5.735   2.788
  568DOPC   C4A 6806   6.186   5.578   3.252
  568DOPC   C1B 6807   6.818   5.767   1.831
  568DOPC   D2B 6808   6.842   5.995   2.280
  568DOPC   C3B 6809   6.620   6.110   2.681
  568DOPC   C4B 6810   6.426   6.090   3.151
  569DOPC   NC3 6811   6.876   4.283   1.107
  569DOPC   PO4 6812   6.634   3.997   1.252
  569DOPC   GL1 6813   6.387   4.071   1.612
  569DOPC   GL2 6814   6.428   4.368   1.529
  569DOPC   C1A 6815   6.610   4.007   2.006
  569DOPC   D2A 6816   6.877   3.917   2.417
  569DOPC   C3A 6817   6.788   3.933   2.876
  569DOPC   C4A 6818   6.623   4.079   3.315
  569DOPC   C1B 6819   6.478   4.493   1.951
  569DOPC   D2B 6820   6.362   4.385   2.433
  569DOPC   C3B 6821   6.473   4.373   2.892
  569DOPC   C4B 6822   6.815   4.543   3.207
  570DOPC   NC3 6823   7.405   7.285   1.210
  570DOPC   PO4 6824   7.755   7.417   1.376
  570DOPC   GL1 6825   7.617   7.128   1.650
  570DOPC   GL2 6826   7.350   7.288   1.688
  570DOPC   C1A 6827   7.653   7.066   2.072
  570DOPC   D2A 6828   7.752   7.058   2.562
  570DOPC   C3A 6829   7.597   7.277   2.953
  570DOPC   C4A 6830   7.440   7.517   3.362
  570DOPC   C1B 6831   7.206   7.285   2.126
  570DOPC   D2B 6832   7.200   7.165   2.629
  570DOPC   C3B 6833   7.081   7.470   2.983
  570DOPC   C4B 6834   6.853   7.808   3.281
  571DOPC   NC3 6835  18.203   6.879   1.055
  571DOPC   PO4 6836  18.039   7.224   1.198
  571DOPC   GL1 6837  17.782   7.176   1.506
  571DOPC   GL2 6838  17.702   6.885   1.512
  571DOPC   C1A 6839  17.958   7.081   1.886
  571DOPC   D2A 6840  18.187   6.913   2.302
  571DOPC   C3A 6841  18.083   6.819   2.750
  571DOPC   C4A 6842  17.937   6.792   3.220
  571DOPC   C1B 6843  17.689   6.633   1.924
  571DOPC   D2B 6844  17.683   6.359   2.375
  571DOPC   C3B 6845  17.903   6.326   2.805
  571DOPC   C4B 6846  18.136   6.305   3.249
  572DOPC   NC3 6847  10.225   0.520   0.978
  572DOPC   PO4 6848  10.606   0.477   1.116
  572DOPC   GL1 6849  10.790   0.349   1.521
  572DOPC   GL2 6850  10.712   0.624   1.610
  572DOPC   C1A 6851  10.781   0.227   1.949
  572DOPC   D2A 6852  10.476   0.171   2.353
  572DOPC   C3A 6853  10.455   0.288   2.809
  572DOPC   C4A 6854  10.464   0.423   3.285
  572DOPC   C1B 6855  10.458   0.622   1.994
  572DOPC   D2B 6856  10.200   0.651   2.432
  572DOPC   C3B 6857  10.116   0.679   2.894
  572DOPC   C4B 6858   9.995   0.662   3.366
  573DOPC   NC3 6859   2.013   1.318   1.340
  573DOPC   PO4 6860   2.356   1.100   1.359
  573DOPC   GL1 6861   2.417   1.132   1.782
  573DOPC   GL2 6862   2.098   1.118   1.767
  573DOPC   C1A 6863   2.398   1.119   2.222
  573DOPC   D2A 6864   2.173   1.291   2.643
  573DOPC   C3A 6865   2.301   1.327   3.098
  573DOPC   C4A 6866   2.329   1.461   3.581
  573DOPC   C1B 6867   1.879   1.179   2.148
  573DOPC   D2B 6868   1.643   1.185   2.586
  573DOPC   C3B 6869   1.826   1.159   3.024
  573DOPC   C4B 6870   2.029   1.055   3.475
  574DOPC   NC3 6871  19.164   5.624   1.143
  574DOPC   PO4 6872  19.309   5.928   1.363
  574DOPC   GL1 6873  19.133   5.931   1.741
  574DOPC   GL2 6874  19.134   5.616   1.774
  574DOPC   C1A 6875  19.053   6.127   2.139
  574DOPC   D2A 6876  19.049   6.315   2.606
  574DOPC   C3A 6877  18.957   6.009   2.957
  574DOPC   C4A 6878  19.121   5.746   3.362
  574DOPC   C1B 6879  18.922   5.599   2.192
  574DOPC   D2B 6880  18.684   5.615   2.659
  574DOPC   C3B 6881  18.688   5.606   3.144
  574DOPC   C4B 6882  18.688   5.644   3.648
  575DOPC   NC3 6883  16.621   5.500   1.331
  575DOPC   PO4 6884  16.984   5.658   1.235
  575DOPC   GL1 6885  17.021   5.608   1.686
  575DOPC   GL2 6886  16.773   5.799   1.670
  575DOPC   C1A 6887  16.984   5.668   2.135
  575DOPC   D2A 6888  16.822   5.810   2.593
  575DOPC   C3A 6889  16.873   5.669   3.041
  575DOPC   C4A 6890  16.846   5.548   3.520
  575DOPC   C1B 6891  16.518   5.851   2.037
  575DOPC   D2B 6892  16.297   5.838   2.489
  575DOPC   C3B 6893  16.411   5.895   2.934
  575DOPC   C4B 6894  16.596   5.955   3.372
  576DOPC   NC3 6895   2.765   1.231   1.060
  576DOPC   PO4 6896   2.885   1.577   1.226
  576DOPC   GL1 6897   2.670   1.404   1.515
  576DOPC   GL2 6898   2.813   1.143   1.534
  576DOPC   C1A 6899   2.714   1.484   1.925
  576DOPC   D2A 6900   2.943   1.329   2.345
  576DOPC   C3A 6901   2.860   1.349   2.812
  576DOPC   C4A 6902   2.759   1.534   3.260
  576DOPC   C1B 6903   2.829   0.986   1.961
  576DOPC   D2B 6904   2.816   0.837   2.446
  576DOPC   C3B 6905   2.609   0.903   2.877
  576DOPC   C4B 6906   2.536   0.979   3.368
  577DOPC   NC3 6907  18.551   8.898   1.067
  577DOPC   PO4 6908  18.339   8.638   1.274
  577DOPC   GL1 6909  18.298   8.788   1.616
  577DOPC   GL2 6910  18.040   8.937   1.613
  577DOPC   C1A 6911  18.297   8.637   2.014
  577DOPC   D2A 6912  18.104   8.668   2.464
  577DOPC   C3A 6913  18.143   8.668   2.924
  577DOPC   C4A 6914  18.255   8.839   3.358
  577DOPC   C1B 6915  17.956   9.042   2.037
  577DOPC   D2B 6916  17.945   9.184   2.520
  577DOPC   C3B 6917  17.921   9.140   2.986
  577DOPC   C4B 6918  17.836   9.105   3.461
  578DOPC   NC3 6919  17.372   2.042   1.401
  578DOPC   PO4 6920  17.442   1.661   1.527
  578DOPC   GL1 6921  17.171   1.708   1.873
  578DOPC   GL2 6922  17.312   2.000   1.888
  578DOPC   C1A 6923  17.065   1.750   2.308
  578DOPC   D2A 6924  17.003   1.984   2.758
  578DOPC   C3A 6925  17.119   1.954   3.226
  578DOPC   C4A 6926  17.331   1.779   3.653
  578DOPC   C1B 6927  17.357   2.171   2.318
  578DOPC   D2B 6928  17.485   2.239   2.815
  578DOPC   C3B 6929  17.616   2.207   3.274
  578DOPC   C4B 6930  17.723   2.105   3.768
  579DOPC   NC3 6931   4.941   0.997   1.203
  579DOPC   PO4 6932   5.213   0.777   1.386
  579DOPC   GL1 6933   4.870   0.815   1.683
  579DOPC   GL2 6934   4.988   1.090   1.698
  579DOPC   C1A 6935   4.760   0.760   2.123
  579DOPC   D2A 6936   4.756   0.860   2.621
  579DOPC   C3A 6937   4.778   1.191   2.965
  579DOPC   C4A 6938   4.855   1.214   3.458
  579DOPC   C1B 6939   4.995   1.216   2.136
  579DOPC   D2B 6940   5.118   1.330   2.618
  579DOPC   C3B 6941   5.255   1.336   3.090
  579DOPC   C4B 6942   5.344   1.360   3.587
  580DOPC   NC3 6943   2.784   2.414   0.935
  580DOPC   PO4 6944   2.520   2.681   1.089
  580DOPC   GL1 6945   2.224   2.540   1.426
  580DOPC   GL2 6946   2.251   2.841   1.501
  580DOPC   C1A 6947   2.192   2.410   1.852
  580DOPC   D2A 6948   2.117   2.376   2.354
  580DOPC   C3A 6949   2.301   2.461   2.790
  580DOPC   C4A 6950   2.607   2.537   3.194
  580DOPC   C1B 6951   2.454   2.833   1.909
  580DOPC   D2B 6952   2.546   2.710   2.401
  580DOPC   C3B 6953   2.523   2.912   2.841
  580DOPC   C4B 6954   2.393   3.215   3.228
  581DOPC   NC3 6955   1.019   3.335   1.265
  581DOPC   PO4 6956   0.890   3.706   1.177
  581DOPC   GL1 6957   1.081   3.832   1.556
  581DOPC   GL2 6958   1.267   3.603   1.549
  581DOPC   C1A 6959   1.097   3.975   1.958
  581DOPC   D2A 6960   0.997   4.063   2.430
  581DOPC   C3A 6961   1.005   3.969   2.878
  581DOPC   C4A 6962   1.151   3.746   3.291
  581DOPC   C1B 6963   1.086   3.454   1.946
  581DOPC   D2B 6964   0.884   3.514   2.427
  581DOPC   C3B 6965   1.031   3.430   2.884
  581DOPC   C4B 6966   1.369   3.298   3.249
  582DOPC   NC3 6967   7.321   5.512   1.173
  582DOPC   PO4 6968   6.966   5.333   1.233
  582DOPC   GL1 6969   6.955   5.345   1.699
  582DOPC   GL2 6970   7.196   5.535   1.633
  582DOPC   C1A 6971   6.992   5.391   2.150
  582DOPC   D2A 6972   7.030   5.333   2.641
  582DOPC   C3A 6973   7.340   5.551   2.898
  582DOPC   C4A 6974   6.896   5.785   2.956
  582DOPC   C1B 6975   7.339   5.736   2.004
  582DOPC   D2B 6976   7.293   5.865   2.489
  582DOPC   C3B 6977   7.337   6.052   2.927
  582DOPC   C4B 6978   7.164   5.914   3.364
  583DOPC   NC3 6979   7.211   8.040   1.212
  583DOPC   PO4 6980   7.292   7.714   1.428
  583DOPC   GL1 6981   7.648   7.823   1.623
  583DOPC   GL2 6982   7.526   8.129   1.600
  583DOPC   C1A 6983   7.621   7.603   2.003
  583DOPC   D2A 6984   7.556   7.518   2.489
  583DOPC   C3A 6985   7.542   7.775   2.884
  583DOPC   C4A 6986   7.493   8.050   3.288
  583DOPC   C1B 6987   7.206   8.319   1.891
  583DOPC   D2B 6988   6.982   8.538   2.305
  583DOPC   C3B 6989   7.103   8.469   2.770
  583DOPC   C4B 6990   7.380   8.566   3.192
  584DOPC   NC3 6991  10.603   2.827   1.079
  584DOPC   PO4 6992  10.712   2.553   1.350
  584DOPC   GL1 6993  10.751   2.892   1.665
  584DOPC   GL2 6994  10.661   2.640   1.836
  584DOPC   C1A 6995  10.816   3.093   2.067
  584DOPC   D2A 6996  10.837   3.174   2.570
  584DOPC   C3A 6997  10.798   2.975   2.995
  584DOPC   C4A 6998  10.690   2.551   3.239
  584DOPC   C1B 6999  10.570   2.695   2.286
  584DOPC   D2B 7000  10.448   2.671   2.778
  584DOPC   C3B 7001  10.313   2.896   3.179
  584DOPC   C4B 7002  10.317   3.122   3.628
  585DOPC   NC3 7003   0.558   2.230   1.062
  585DOPC   PO4 7004   0.924   2.090   1.163
  585DOPC   GL1 7005   0.957   2.352   1.516
  585DOPC   GL2 7006   0.676   2.482   1.445
  585DOPC   C1A 7007   0.904   2.112   1.897
  585DOPC   D2A 7008   0.700   1.834   2.281
  585DOPC   C3A 7009   0.780   1.802   2.749
  585DOPC   C4A 7010   0.847   1.777   3.245
  585DOPC   C1B 7011   0.410   2.263   1.742
  585DOPC   D2B 7012   0.236   2.052   2.174
  585DOPC   C3B 7013   0.355   2.079   2.633
  585DOPC   C4B 7014   0.420   2.078   3.128
  586DOPC   NC3 7015   5.183   3.916   1.247
  586DOPC   PO4 7016   5.507   3.712   1.379
  586DOPC   GL1 7017   5.429   3.608   1.797
  586DOPC   GL2 7018   5.128   3.617   1.705
  586DOPC   C1A 7019   5.467   3.431   2.223
  586DOPC   D2A 7020   5.664   3.140   2.577
  586DOPC   C3A 7021   5.489   3.229   2.990
  586DOPC   C4A 7022   5.368   3.537   3.354
  586DOPC   C1B 7023   5.019   3.331   2.014
  586DOPC   D2B 7024   5.072   3.314   2.525
  586DOPC   C3B 7025   5.056   3.532   2.956
  586DOPC   C4B 7026   4.932   3.839   3.343
  587DOPC   NC3 7027  19.713   5.682   1.181
  587DOPC   PO4 7028   0.090   5.752   1.299
  587DOPC   GL1 7029  19.938   5.997   1.628
  587DOPC   GL2 7030  19.674   5.848   1.632
  587DOPC   C1A 7031  19.925   6.009   2.074
  587DOPC   D2A 7032  19.760   6.051   2.540
  587DOPC   C3A 7033  19.919   5.844   2.922
  587DOPC   C4A 7034   0.091   5.543   3.275
  587DOPC   C1B 7035  19.461   5.827   2.043
  587DOPC   D2B 7036  19.267   5.830   2.505
  587DOPC   C3B 7037  19.413   5.798   2.940
  587DOPC   C4B 7038  19.635   5.931   3.354
  588DOPC   NC3 7039   4.569   2.679   1.210
  588DOPC   PO4 7040   4.657   3.056   1.327
  588DOPC   GL1 7041   4.655   3.033   1.799
  588DOPC   GL2 7042   4.581   2.741   1.706
  588DOPC   C1A 7043   4.728   3.007   2.269
  588DOPC   D2A 7044   4.707   3.047   2.787
  588DOPC   C3A 7045   4.527   3.042   3.231
  588DOPC   C4A 7046   4.382   3.133   3.704
  588DOPC   C1B 7047   4.628   2.524   2.085
  588DOPC   D2B 7048   4.739   2.579   2.566
  588DOPC   C3B 7049   4.522   2.592   2.983
  588DOPC   C4B 7050   4.224   2.627   3.371
  589DOPC   NC3 7051  19.211   2.713   1.068
  589DOPC   PO4 7052  19.206   3.049   1.292
  589DOPC   GL1 7053  19.043   2.968   1.699
  589DOPC   GL2 7054  18.880   2.732   1.603
  589DOPC   C1A 7055  18.943   2.941   2.137
  589DOPC   D2A 7056  18.901   2.837   2.619
  589DOPC   C3A 7057  19.025   2.807   3.075
  589DOPC   C4A 7058  19.162   2.895   3.549
  589DOPC   C1B 7059  18.603   2.601   1.955
  589DOPC   D2B 7060  18.429   2.557   2.442
  589DOPC   C3B 7061  18.479   2.729   2.893
  589DOPC   C4B 7062  18.614   2.964   3.313
  590DOPC   NC3 7063  18.031   3.669   0.894
  590DOPC   PO4 7064  17.646   3.684   1.040
  590DOPC   GL1 7065  17.674   3.412   1.400
  590DOPC   GL2 7066  17.941   3.588   1.462
  590DOPC   C1A 7067  17.632   3.199   1.800
  590DOPC   D2A 7068  17.648   3.185   2.315
  590DOPC   C3A 7069  17.765   3.358   2.749
  590DOPC   C4A 7070  17.906   3.564   3.186
  590DOPC   C1B 7071  18.018   3.510   1.910
  590DOPC   D2B 7072  18.141   3.363   2.379
  590DOPC   C3B 7073  18.335   3.572   2.760
  590DOPC   C4B 7074  18.605   3.705   3.163
  591DOPC   NC3 7075  14.129   3.634   0.860
  591DOPC   PO4 7076  14.153   3.320   1.114
  591DOPC   GL1 7077  13.925   3.314   1.509
  591DOPC   GL2 7078  13.892   3.611   1.516
  591DOPC   C1A 7079  14.113   3.179   1.902
  591DOPC   D2A 7080  14.395   3.036   2.300
  591DOPC   C3A 7081  14.344   3.183   2.747
  591DOPC   C4A 7082  14.180   3.306   3.193
  591DOPC   C1B 7083  14.011   3.669   1.933
  591DOPC   D2B 7084  14.123   3.487   2.389
  591DOPC   C3B 7085  14.187   3.680   2.817
  591DOPC   C4B 7086  14.415   3.889   3.210
  592DOPC   NC3 7087   8.845   8.650   0.805
  592DOPC   PO4 7088   8.688   8.987   0.948
  592DOPC   GL1 7089   8.651   9.004   1.361
  592DOPC   GL2 7090   8.902   8.849   1.407
  592DOPC   C1A 7091   8.505   9.050   1.773
  592DOPC   D2A 7092   8.493   9.027   2.279
  592DOPC   C3A 7093   8.592   8.927   2.741
  592DOPC   C4A 7094   8.746   8.888   3.225
  592DOPC   C1B 7095   8.979   8.897   1.844
  592DOPC   D2B 7096   8.993   8.925   2.344
  592DOPC   C3B 7097   9.113   8.941   2.802
  592DOPC   C4B 7098   9.227   9.113   3.256
  593DOPC   NC3 7099  11.390   8.117   1.007
  593DOPC   PO4 7100  11.662   8.092   1.302
  593DOPC   GL1 7101  11.537   8.385   1.630
  593DOPC   GL2 7102  11.269   8.285   1.500
  593DOPC   C1A 7103  11.459   8.451   2.090
  593DOPC   D2A 7104  11.409   8.580   2.580
  593DOPC   C3A 7105  11.454   8.315   2.964
  593DOPC   C4A 7106  11.376   7.906   3.241
  593DOPC   C1B 7107  11.052   8.216   1.889
  593DOPC   D2B 7108  11.049   8.283   2.393
  593DOPC   C3B 7109  11.024   8.053   2.807
  593DOPC   C4B 7110  10.882   7.763   3.183
  594DOPC   NC3 7111  17.231   9.815   1.135
  594DOPC   PO4 7112  17.175   0.146   1.362
  594DOPC   GL1 7113  16.963   9.906   1.628
  594DOPC   GL2 7114  17.062   9.638   1.527
  594DOPC   C1A 7115  17.113   9.872   2.036
  594DOPC   D2A 7116  17.247   9.723   2.483
  594DOPC   C3A 7117  17.159   9.777   2.930
  594DOPC   C4A 7118  17.175   9.837   3.404
  594DOPC   C1B 7119  17.279   9.416   1.869
  594DOPC   D2B 7120  17.486   9.281   2.307
  594DOPC   C3B 7121  17.541   9.423   2.763
  594DOPC   C4B 7122  17.623   9.719   3.164
  595DOPC   NC3 7123   0.112   7.013   1.202
  595DOPC   PO4 7124   0.097   7.391   1.332
  595DOPC   GL1 7125   0.377   7.232   1.592
  595DOPC   GL2 7126   0.451   7.499   1.714
  595DOPC   C1A 7127   0.232   7.043   1.966
  595DOPC   D2A 7128   0.113   7.160   2.445
  595DOPC   C3A 7129   0.170   7.189   2.912
  595DOPC   C4A 7130   0.298   7.329   3.362
  595DOPC   C1B 7131   0.434   7.469   2.172
  595DOPC   D2B 7132   0.575   7.362   2.651
  595DOPC   C3B 7133   0.714   7.463   3.102
  595DOPC   C4B 7134   0.741   7.436   3.616
  596DOPC   NC3 7135   9.209   8.907   1.055
  596DOPC   PO4 7136   9.187   8.511   1.157
  596DOPC   GL1 7137   9.193   8.539   1.625
  596DOPC   GL2 7138   9.328   8.822   1.533
  596DOPC   C1A 7139   9.344   8.632   2.059
  596DOPC   D2A 7140   9.523   8.916   2.451
  596DOPC   C3A 7141   9.595   8.866   2.922
  596DOPC   C4A 7142   9.382   8.623   3.300
  596DOPC   C1B 7143   9.656   8.965   1.818
  596DOPC   D2B 7144   9.951   9.144   2.200
  596DOPC   C3B 7145   9.974   9.148   2.676
  596DOPC   C4B 7146   9.982   9.103   3.168
  597DOPC   NC3 7147  12.611   1.075   1.320
  597DOPC   PO4 7148  12.635   1.474   1.251
  597DOPC   GL1 7149  12.900   1.456   1.566
  597DOPC   GL2 7150  13.034   1.214   1.451
  597DOPC   C1A 7151  12.677   1.437   1.950
  597DOPC   D2A 7152  12.406   1.482   2.378
  597DOPC   C3A 7153  12.539   1.556   2.829
  597DOPC   C4A 7154  12.762   1.596   3.269
  597DOPC   C1B 7155  12.973   1.033   1.845
  597DOPC   D2B 7156  12.788   1.090   2.317
  597DOPC   C3B 7157  12.874   1.131   2.787
  597DOPC   C4B 7158  13.100   1.071   3.222
  598DOPC   NC3 7159  14.787   8.933   1.229
  598DOPC   PO4 7160  15.188   8.907   1.236
  598DOPC   GL1 7161  15.170   9.025   1.651
  598DOPC   GL2 7162  14.876   9.068   1.672
  598DOPC   C1A 7163  15.120   8.763   2.002
  598DOPC   D2A 7164  14.979   8.547   2.456
  598DOPC   C3A 7165  15.021   8.604   2.938
  598DOPC   C4A 7166  15.104   8.640   3.434
  598DOPC   C1B 7167  14.667   8.993   2.084
  598DOPC   D2B 7168  14.645   8.924   2.593
  598DOPC   C3B 7169  14.618   8.965   3.074
  598DOPC   C4B 7170  14.628   8.924   3.583
  599DOPC   NC3 7171   3.049   0.501   1.079
  599DOPC   PO4 7172   3.090   0.837   1.306
  599DOPC   GL1 7173   3.210   0.843   1.732
  599DOPC   GL2 7174   3.485   0.703   1.678
  599DOPC   C1A 7175   3.204   0.622   2.125
  599DOPC   D2A 7176   3.445   0.508   2.568
  599DOPC   C3A 7177   3.383   0.409   3.041
  599DOPC   C4A 7178   3.215   0.424   3.514
  599DOPC   C1B 7179   3.728   0.570   2.072
  599DOPC   D2B 7180   3.946   0.304   2.464
  599DOPC   C3B 7181   3.855   0.217   2.933
  599DOPC   C4B 7182   3.704   0.226   3.423
  600DOPC   NC3 7183   4.246   7.938   1.088
  600DOPC   PO4 7184   4.510   8.104   1.351
  600DOPC   GL1 7185   4.411   7.897   1.659
  600DOPC   GL2 7186   4.169   7.745   1.537
  600DOPC   C1A 7187   4.365   8.172   2.017
  600DOPC   D2A 7188   4.418   8.481   2.411
  600DOPC   C3A 7189   4.360   8.255   2.799
  600DOPC   C4A 7190   4.470   8.233   3.276
  600DOPC   C1B 7191   3.988   7.822   1.928
  600DOPC   D2B 7192   4.002   8.023   2.397
  600DOPC   C3B 7193   3.946   7.953   2.858
  600DOPC   C4B 7194   3.894   7.937   3.357
  601DOPC   NC3 7195   7.322   3.398   1.177
  601DOPC   PO4 7196   7.526   3.745   1.218
  601DOPC   GL1 7197   7.643   3.679   1.633
  601DOPC   GL2 7198   7.399   3.489   1.660
  601DOPC   C1A 7199   7.663   3.697   2.068
  601DOPC   D2A 7200   7.388   3.853   2.444
  601DOPC   C3A 7201   7.304   3.803   2.897
  601DOPC   C4A 7202   7.272   3.704   3.367
  601DOPC   C1B 7203   7.198   3.501   2.089
  601DOPC   D2B 7204   7.049   3.450   2.584
  601DOPC   C3B 7205   7.122   3.327   3.046
  601DOPC   C4B 7206   7.139   3.267   3.555
  602DOPC   NC3 7207  13.392   0.425   1.170
  602DOPC   PO4 7208  13.559   0.733   1.368
  602DOPC   GL1 7209  13.256   0.680   1.702
  602DOPC   GL2 7210  13.339   0.384   1.638
  602DOPC   C1A 7211  13.247   0.711   2.168
  602DOPC   D2A 7212  13.314   0.693   2.680
  602DOPC   C3A 7213  13.272   0.604   3.144
  602DOPC   C4A 7214  13.324   0.730   3.620
  602DOPC   C1B 7215  13.514   0.279   2.020
  602DOPC   D2B 7216  13.704   0.489   2.422
  602DOPC   C3B 7217  13.623   0.327   2.857
  602DOPC   C4B 7218  13.536  -0.008   3.216
  603DOPC   NC3 7219   3.379   1.675   1.206
  603DOPC   PO4 7220   3.756   1.564   1.302
  603DOPC   GL1 7221   3.642   1.495   1.706
  603DOPC   GL2 7222   3.391   1.698   1.691
  603DOPC   C1A 7223   3.931   1.491   2.045
  603DOPC   D2A 7224   4.164   1.550   2.486
  603DOPC   C3A 7225   3.904   1.490   2.885
  603DOPC   C4A 7226   3.600   1.613   3.261
  603DOPC   C1B 7227   3.115   1.787   2.073
  603DOPC   D2B 7228   2.964   1.790   2.571
  603DOPC   C3B 7229   3.147   1.817   3.023
  603DOPC   C4B 7230   3.381   2.093   3.392
  604DOPC   NC3 7231  12.827   0.760   0.919
  604DOPC   PO4 7232  13.047   0.794   1.250
  604DOPC   GL1 7233  12.812   0.654   1.594
  604DOPC   GL2 7234  12.921   0.372   1.495
  604DOPC   C1A 7235  12.748   0.625   2.051
  604DOPC   D2A 7236  12.829   0.630   2.554
  604DOPC   C3A 7237  12.777   0.662   3.026
  604DOPC   C4A 7238  12.829   0.712   3.521
  604DOPC   C1B 7239  13.011   0.204   1.901
  604DOPC   D2B 7240  13.136   0.245   2.384
  604DOPC   C3B 7241  13.074   0.240   2.851
  604DOPC   C4B 7242  12.922   0.232   3.321
  605DOPC   NC3 7243  13.843   7.046   0.966
  605DOPC   PO4 7244  14.178   6.847   1.085
  605DOPC   GL1 7245  14.319   7.040   1.476
  605DOPC   GL2 7246  14.572   6.880   1.471
  605DOPC   C1A 7247  14.261   6.935   1.900
  605DOPC   D2A 7248  14.366   6.764   2.352
  605DOPC   C3A 7249  14.292   6.897   2.797
  605DOPC   C4A 7250  14.182   6.773   3.260
  605DOPC   C1B 7251  14.602   6.567   1.798
  605DOPC   D2B 7252  14.634   6.318   2.251
  605DOPC   C3B 7253  14.538   6.312   2.725
  605DOPC   C4B 7254  14.429   6.250   3.216
  606DOPC   NC3 7255  18.166   5.197   1.311
  606DOPC   PO4 7256  17.773   5.240   1.367
  606DOPC   GL1 7257  17.816   5.144   1.766
  606DOPC   GL2 7258  17.999   4.914   1.687
  606DOPC   C1A 7259  17.969   5.263   2.169
  606DOPC   D2A 7260  18.139   5.484   2.601
  606DOPC   C3A 7261  18.237   5.388   3.059
  606DOPC   C4A 7262  18.307   5.286   3.560
  606DOPC   C1B 7263  18.163   4.736   2.063
  606DOPC   D2B 7264  18.377   4.635   2.507
  606DOPC   C3B 7265  18.207   4.887   2.879
  606DOPC   C4B 7266  17.946   5.048   3.293
  607DOPC   NC3 7267   5.844   9.593   1.164
  607DOPC   PO4 7268   5.513   9.493   1.372
  607DOPC   GL1 7269   5.749   9.517   1.708
  607DOPC   GL2 7270   5.999   9.376   1.565
  607DOPC   C1A 7271   5.716   9.761   2.087
  607DOPC   D2A 7272   5.379   0.050   2.333
  607DOPC   C3A 7273   5.468   0.042   2.795
  607DOPC   C4A 7274   5.554   0.065   3.288
  607DOPC   C1B 7275   6.252   9.493   1.898
  607DOPC   D2B 7276   6.210   9.729   2.337
  607DOPC   C3B 7277   5.889   9.668   2.671
  607DOPC   C4B 7278   5.572   9.585   3.037
  608DOPC   NC3 7279   6.045   4.137   1.262
  608DOPC   PO4 7280   6.069   4.553   1.304
  608DOPC   GL1 7281   5.880   4.570   1.699
  608DOPC   GL2 7282   5.960   4.276   1.688
  608DOPC   C1A 7283   5.979   4.633   2.132
  608DOPC   D2A 7284   6.055   4.777   2.589
  608DOPC   C3A 7285   6.019   4.622   3.027
  608DOPC   C4A 7286   6.155   4.251   3.331
  608DOPC   C1B 7287   6.116   4.150   2.053
  608DOPC   D2B 7288   5.897   4.146   2.502
  608DOPC   C3B 7289   5.811   4.173   2.964
  608DOPC   C4B 7290   5.660   4.254   3.448
  609DOPC   NC3 7291   0.517   5.560   1.095
  609DOPC   PO4 7292   0.785   5.250   1.077
  609DOPC   GL1 7293   0.888   5.206   1.493
  609DOPC   GL2 7294   0.784   4.904   1.498
  609DOPC   C1A 7295   0.587   5.344   1.792
  609DOPC   D2A 7296   0.245   5.347   2.167
  609DOPC   C3A 7297   0.161   5.289   2.638
  609DOPC   C4A 7298   0.021   5.077   3.079
  609DOPC   C1B 7299   0.598   4.840   1.922
  609DOPC   D2B 7300   0.453   4.917   2.404
  609DOPC   C3B 7301   0.356   4.760   2.842
  609DOPC   C4B 7302   0.137   4.512   3.221
  610DOPC   NC3 7303  11.337   1.439   0.994
  610DOPC   PO4 7304  11.327   1.043   1.068
  610DOPC   GL1 7305  11.457   1.077   1.473
  610DOPC   GL2 7306  11.327   1.367   1.474
  610DOPC   C1A 7307  11.406   0.920   1.887
  610DOPC   D2A 7308  11.376   0.685   2.342
  610DOPC   C3A 7309  11.301   0.803   2.800
  610DOPC   C4A 7310  11.178   1.037   3.229
  610DOPC   C1B 7311  11.314   1.546   1.893
  610DOPC   D2B 7312  11.379   1.751   2.361
  610DOPC   C3B 7313  11.246   1.753   2.820
  610DOPC   C4B 7314  11.000   1.613   3.240
  611DOPC   NC3 7315   2.107   5.351   1.025
  611DOPC   PO4 7316   1.848   5.314   1.330
  611DOPC   GL1 7317   2.028   5.042   1.563
  611DOPC   GL2 7318   1.835   4.810   1.488
  611DOPC   C1A 7319   2.028   5.061   2.002
  611DOPC   D2A 7320   1.873   5.020   2.472
  611DOPC   C3A 7321   2.008   5.077   2.913
  611DOPC   C4A 7322   2.286   5.343   3.201
  611DOPC   C1B 7323   1.732   4.627   1.874
  611DOPC   D2B 7324   1.684   4.564   2.371
  611DOPC   C3B 7325   1.699   4.635   2.846
  611DOPC   C4B 7326   1.754   4.831   3.306
  612DOPC   NC3 7327  14.222   7.380   1.138
  612DOPC   PO4 7328  14.567   7.182   1.103
  612DOPC   GL1 7329  14.722   7.315   1.427
  612DOPC   GL2 7330  14.466   7.485   1.532
  612DOPC   C1A 7331  14.713   7.193   1.820
  612DOPC   D2A 7332  14.608   7.220   2.290
  612DOPC   C3A 7333  14.617   7.329   2.728
  612DOPC   C4A 7334  14.563   7.434   3.206
  612DOPC   C1B 7335  14.256   7.430   1.950
  612DOPC   D2B 7336  14.107   7.225   2.404
  612DOPC   C3B 7337  14.137   7.401   2.851
  612DOPC   C4B 7338  14.145   7.747   3.211
  613DOPC   NC3 7339   1.084   6.473   1.273
  613DOPC   PO4 7340   1.229   6.112   1.391
  613DOPC   GL1 7341   1.179   6.185   1.791
  613DOPC   GL2 7342   1.022   6.456   1.733
  613DOPC   C1A 7343   1.192   6.072   2.223
  613DOPC   D2A 7344   1.227   6.055   2.717
  613DOPC   C3A 7345   1.160   6.407   3.028
  613DOPC   C4A 7346   0.940   6.687   3.385
  613DOPC   C1B 7347   1.045   6.782   2.039
  613DOPC   D2B 7348   0.973   7.003   2.490
  613DOPC   C3B 7349   1.177   6.918   2.916
  613DOPC   C4B 7350   1.441   6.826   3.337
  614DOPC   NC3 7351  11.459   9.750   1.174
  614DOPC   PO4 7352  11.257   9.419   1.282
  614DOPC   GL1 7353  11.426   9.498   1.655
  614DOPC   GL2 7354  11.285   9.783   1.642
  614DOPC   C1A 7355  11.430   9.434   2.091
  614DOPC   D2A 7356  11.250   9.622   2.517
  614DOPC   C3A 7357  11.231   9.694   2.978
  614DOPC   C4A 7358  11.255   9.748   3.473
  614DOPC   C1B 7359  11.017   9.737   1.998
  614DOPC   D2B 7360  10.747   9.733   2.423
  614DOPC   C3B 7361  10.728   9.824   2.885
  614DOPC   C4B 7362  10.854   0.054   3.307
  615DOPC   NC3 7363   8.302   7.110   1.178
  615DOPC   PO4 7364   8.045   6.965   1.427
  615DOPC   GL1 7365   8.039   7.045   1.818
  615DOPC   GL2 7366   7.993   7.345   1.807
  615DOPC   C1A 7367   8.087   6.872   2.214
  615DOPC   D2A 7368   8.007   6.611   2.621
  615DOPC   C3A 7369   7.924   6.865   3.009
  615DOPC   C4A 7370   7.833   7.154   3.399
  615DOPC   C1B 7371   8.008   7.400   2.258
  615DOPC   D2B 7372   8.038   7.465   2.764
  615DOPC   C3B 7373   7.935   7.630   3.203
  615DOPC   C4B 7374   8.168   7.728   3.640
  616DOPC   NC3 7375  10.702   5.982   1.333
  616DOPC   PO4 7376  10.897   5.648   1.434
  616DOPC   GL1 7377  10.727   5.708   1.809
  616DOPC   GL2 7378  10.504   5.902   1.750
  616DOPC   C1A 7379  10.845   5.857   2.219
  616DOPC   D2A 7380  10.729   6.132   2.629
  616DOPC   C3A 7381  10.738   5.862   3.010
  616DOPC   C4A 7382  10.795   5.566   3.403
  616DOPC   C1B 7383  10.375   6.047   2.169
  616DOPC   D2B 7384  10.168   6.185   2.617
  616DOPC   C3B 7385  10.277   6.114   3.076
  616DOPC   C4B 7386  10.585   6.067   3.468
  617DOPC   NC3 7387  15.855   2.473   1.117
  617DOPC   PO4 7388  15.489   2.431   1.268
  617DOPC   GL1 7389  15.585   2.709   1.558
  617DOPC   GL2 7390  15.880   2.664   1.569
  617DOPC   C1A 7391  15.499   2.688   1.977
  617DOPC   D2A 7392  15.393   2.737   2.466
  617DOPC   C3A 7393  15.681   2.860   2.827
  617DOPC   C4A 7394  15.967   2.986   3.220
  617DOPC   C1B 7395  16.049   2.701   2.000
  617DOPC   D2B 7396  16.093   2.718   2.505
  617DOPC   C3B 7397  16.203   2.635   2.953
  617DOPC   C4B 7398  16.216   2.582   3.452
  618DOPC   NC3 7399   9.013   4.693   0.921
  618DOPC   PO4 7400   8.701   4.679   1.182
  618DOPC   GL1 7401   8.594   4.653   1.633
  618DOPC   GL2 7402   8.904   4.632   1.672
  618DOPC   C1A 7403   8.534   4.708   2.089
  618DOPC   D2A 7404   8.486   4.610   2.593
  618DOPC   C3A 7405   8.500   4.629   3.081
  618DOPC   C4A 7406   8.440   4.590   3.593
  618DOPC   C1B 7407   9.030   4.549   2.107
  618DOPC   D2B 7408   9.018   4.530   2.621
  618DOPC   C3B 7409   8.978   4.849   2.972
  618DOPC   C4B 7410   8.980   5.286   3.214
  619DOPC   NC3 7411  10.277   8.006   1.024
  619DOPC   PO4 7412  10.570   7.746   1.106
  619DOPC   GL1 7413  10.477   7.727   1.516
  619DOPC   GL2 7414  10.245   7.929   1.504
  619DOPC   C1A 7415  10.661   7.819   1.914
  619DOPC   D2A 7416  10.696   7.914   2.405
  619DOPC   C3A 7417  10.516   7.866   2.838
  619DOPC   C4A 7418  10.260   7.672   3.216
  619DOPC   C1B 7419  10.362   8.222   1.833
  619DOPC   D2B 7420  10.589   8.450   2.231
  619DOPC   C3B 7421  10.612   8.369   2.699
  619DOPC   C4B 7422  10.684   8.240   3.178
  620DOPC   NC3 7423  18.810   3.682   1.352
  620DOPC   PO4 7424  19.185   3.831   1.346
  620DOPC   GL1 7425  19.397   3.599   1.654
  620DOPC   GL2 7426  19.153   3.407   1.600
  620DOPC   C1A 7427  19.256   3.713   2.065
  620DOPC   D2A 7428  18.918   3.743   2.447
  620DOPC   C3A 7429  19.051   3.644   2.892
  620DOPC   C4A 7430  19.075   3.789   3.378
  620DOPC   C1B 7431  18.866   3.409   1.956
  620DOPC   D2B 7432  18.644   3.286   2.402
  620DOPC   C3B 7433  18.724   3.243   2.868
  620DOPC   C4B 7434  19.000   3.297   3.269
  621DOPC   NC3 7435  16.051   1.273   1.131
  621DOPC   PO4 7436  15.718   1.494   1.148
  621DOPC   GL1 7437  15.738   1.329   1.554
  621DOPC   GL2 7438  16.025   1.443   1.570
  621DOPC   C1A 7439  15.703   1.294   2.005
  621DOPC   D2A 7440  15.716   1.474   2.482
  621DOPC   C3A 7441  15.684   1.402   2.957
  621DOPC   C4A 7442  15.689   1.240   3.429
  621DOPC   C1B 7443  16.197   1.401   1.982
  621DOPC   D2B 7444  16.291   1.186   2.422
  621DOPC   C3B 7445  16.204   1.397   2.830
  621DOPC   C4B 7446  16.070   1.637   3.249
  622DOPC   NC3 7447   5.725   8.688   1.160
  622DOPC   PO4 7448   5.834   9.068   1.231
  622DOPC   GL1 7449   5.641   9.100   1.631
  622DOPC   GL2 7450   5.573   8.804   1.618
  622DOPC   C1A 7451   5.880   9.176   2.009
  622DOPC   D2A 7452   6.234   9.195   2.373
  622DOPC   C3A 7453   6.067   9.161   2.809
  622DOPC   C4A 7454   5.840   9.156   3.243
  622DOPC   C1B 7455   5.776   8.681   2.000
  622DOPC   D2B 7456   5.965   8.730   2.467
  622DOPC   C3B 7457   5.846   8.686   2.925
  622DOPC   C4B 7458   5.790   8.571   3.409
  623DOPC   NC3 7459  11.867   8.819   1.013
  623DOPC   PO4 7460  11.572   8.592   1.163
  623DOPC   GL1 7461  11.887   8.634   1.466
  623DOPC   GL2 7462  11.835   8.934   1.497
  623DOPC   C1A 7463  11.900   8.576   1.891
  623DOPC   D2A 7464  11.902   8.467   2.396
  623DOPC   C3A 7465  11.845   8.648   2.839
  623DOPC   C4A 7466  11.456   8.824   3.115
  623DOPC   C1B 7467  11.973   9.115   1.899
  623DOPC   D2B 7468  11.914   9.377   2.338
  623DOPC   C3B 7469  11.676   9.406   2.757
  623DOPC   C4B 7470  11.512   9.349   3.228
  624DOPC   NC3 7471   9.095   3.424   1.223
  624DOPC   PO4 7472   8.835   3.181   1.402
  624DOPC   GL1 7473   8.904   3.351   1.780
  624DOPC   GL2 7474   8.976   3.626   1.664
  624DOPC   C1A 7475   8.821   3.319   2.223
  624DOPC   D2A 7476   8.864   3.322   2.717
  624DOPC   C3A 7477   8.973   3.423   3.163
  624DOPC   C4A 7478   8.979   3.335   3.648
  624DOPC   C1B 7479   8.726   3.767   2.005
  624DOPC   D2B 7480   8.562   3.728   2.490
  624DOPC   C3B 7481   8.595   3.698   2.969
  624DOPC   C4B 7482   8.641   3.692   3.471
  625DOPC   NC3 7483  14.426   0.487   1.310
  625DOPC   PO4 7484  14.644   0.779   1.479
  625DOPC   GL1 7485  14.384   0.833   1.856
  625DOPC   GL2 7486  14.194   0.630   1.708
  625DOPC   C1A 7487  14.237   0.684   2.268
  625DOPC   D2A 7488  14.138   0.383   2.677
  625DOPC   C3A 7489  14.381   0.447   3.083
  625DOPC   C4A 7490  14.619   0.742   3.412
  625DOPC   C1B 7491  14.028   0.301   1.990
  625DOPC   D2B 7492  13.847  10.002   2.369
  625DOPC   C3B 7493  13.924   9.923   2.838
  625DOPC   C4B 7494  14.059   0.095   3.294
  626DOPC   NC3 7495  17.940   4.038   1.255
  626DOPC   PO4 7496  18.313   3.903   1.335
  626DOPC   GL1 7497  18.307   3.835   1.767
  626DOPC   GL2 7498  18.037   3.996   1.811
  626DOPC   C1A 7499  18.405   3.812   2.205
  626DOPC   D2A 7500  18.365   4.086   2.623
  626DOPC   C3A 7501  18.439   4.401   2.966
  626DOPC   C4A 7502  18.260   4.087   3.296
  626DOPC   C1B 7503  18.013   4.192   2.255
  626DOPC   D2B 7504  17.965   4.406   2.742
  626DOPC   C3B 7505  18.019   4.551   3.215
  626DOPC   C4B 7506  18.048   4.720   3.690
  627DOPC   NC3 7507   1.435   2.123   1.010
  627DOPC   PO4 7508   1.337   2.431   1.247
  627DOPC   GL1 7509   1.459   2.170   1.573
  627DOPC   GL2 7510   1.293   1.942   1.442
  627DOPC   C1A 7511   1.406   2.025   1.994
  627DOPC   D2A 7512   1.172   2.005   2.438
  627DOPC   C3A 7513   1.226   2.048   2.903
  627DOPC   C4A 7514   1.221   2.116   3.390
  627DOPC   C1B 7515   1.175   1.637   1.767
  627DOPC   D2B 7516   1.118   1.534   2.263
  627DOPC   C3B 7517   1.247   1.559   2.723
  627DOPC   C4B 7518   1.399   1.646   3.194
  628DOPC   NC3 7519  19.476   3.639   0.969
  628DOPC   PO4 7520  19.658   3.360   1.180
  628DOPC   GL1 7521  19.569   3.177   1.576
  628DOPC   GL2 7522  19.848   3.298   1.642
  628DOPC   C1A 7523  19.365   3.205   1.968
  628DOPC   D2A 7524  19.164   3.301   2.413
  628DOPC   C3A 7525  19.276   3.175   2.838
  628DOPC   C4A 7526  19.511   3.190   3.275
  628DOPC   C1B 7527  19.751   3.552   1.996
  628DOPC   D2B 7528  19.569   3.623   2.469
  628DOPC   C3B 7529  19.565   3.583   2.939
  628DOPC   C4B 7530  19.589   3.699   3.415
  629DOPC   NC3 7531  15.071   9.376   1.315
  629DOPC   PO4 7532  14.693   9.404   1.420
  629DOPC   GL1 7533  14.876   9.594   1.721
  629DOPC   GL2 7534  15.065   9.780   1.545
  629DOPC   C1A 7535  15.058   9.304   2.032
  629DOPC   D2A 7536  15.155   9.022   2.427
  629DOPC   C3A 7537  15.108   9.094   2.866
  629DOPC   C4A 7538  15.039   9.137   3.336
  629DOPC   C1B 7539  15.306   9.706   1.912
  629DOPC   D2B 7540  15.401   9.535   2.392
  629DOPC   C3B 7541  15.327   9.553   2.879
  629DOPC   C4B 7542  15.167   9.640   3.353
  630DOPC   NC3 7543   9.495   0.807   1.086
  630DOPC   PO4 7544   9.772   0.581   1.261
  630DOPC   GL1 7545   9.647   0.701   1.671
  630DOPC   GL2 7546   9.349   0.690   1.537
  630DOPC   C1A 7547   9.724   0.564   2.120
  630DOPC   D2A 7548   9.736   0.417   2.615
  630DOPC   C3A 7549   9.601   0.583   3.040
  630DOPC   C4A 7550   9.507   0.805   3.481
  630DOPC   C1B 7551   9.256   0.491   1.913
  630DOPC   D2B 7552   9.265   0.526   2.416
  630DOPC   C3B 7553   9.203   0.327   2.846
  630DOPC   C4B 7554   9.070   0.145   3.293
  631DOPC   NC3 7555   4.174   1.949   1.259
  631DOPC   PO4 7556   4.491   1.709   1.255
  631DOPC   GL1 7557   4.454   1.620   1.687
  631DOPC   GL2 7558   4.160   1.695   1.671
  631DOPC   C1A 7559   4.573   1.597   2.119
  631DOPC   D2A 7560   4.673   1.574   2.619
  631DOPC   C3A 7561   4.605   1.741   3.061
  631DOPC   C4A 7562   4.405   2.158   3.250
  631DOPC   C1B 7563   4.193   1.971   2.025
  631DOPC   D2B 7564   4.198   2.376   2.335
  631DOPC   C3B 7565   4.132   2.310   2.798
  631DOPC   C4B 7566   3.878   2.229   3.223
  632DOPC   NC3 7567   6.673   0.494   1.090
  632DOPC   PO4 7568   6.901   0.717   1.332
  632DOPC   GL1 7569   6.845   0.543   1.707
  632DOPC   GL2 7570   6.549   0.668   1.699
  632DOPC   C1A 7571   6.835   0.548   2.147
  632DOPC   D2A 7572   6.592   0.639   2.573
  632DOPC   C3A 7573   6.666   0.543   3.031
  632DOPC   C4A 7574   6.911   0.195   3.295
  632DOPC   C1B 7575   6.313   0.637   2.093
  632DOPC   D2B 7576   6.052   0.636   2.535
  632DOPC   C3B 7577   6.159   0.684   2.996
  632DOPC   C4B 7578   6.353   0.782   3.443
  633DOPC   NC3 7579   8.232   9.205   0.939
  633DOPC   PO4 7580   8.026   9.499   1.113
  633DOPC   GL1 7581   8.206   9.600   1.532
  633DOPC   GL2 7582   7.899   9.662   1.580
  633DOPC   C1A 7583   8.365   9.518   1.969
  633DOPC   D2A 7584   8.544   9.508   2.455
  633DOPC   C3A 7585   8.402   9.578   2.905
  633DOPC   C4A 7586   8.163   9.598   3.344
  633DOPC   C1B 7587   7.877   9.670   2.027
  633DOPC   D2B 7588   8.062   9.693   2.490
  633DOPC   C3B 7589   7.866   9.627   2.912
  633DOPC   C4B 7590   7.604   9.560   3.330
  634DOPC   NC3 7591  16.191   0.762   1.153
  634DOPC   PO4 7592  16.448   0.720   1.461
  634DOPC   GL1 7593  16.723   0.550   1.720
  634DOPC   GL2 7594  16.735   0.289   1.546
  634DOPC   C1A 7595  16.662   0.534   2.179
  634DOPC   D2A 7596  16.663   0.535   2.705
  634DOPC   C3A 7597  16.507   0.599   3.172
  634DOPC   C4A 7598  16.271   0.585   3.625
  634DOPC   C1B 7599  16.650   0.066   1.923
  634DOPC   D2B 7600  16.726   9.821   2.362
  634DOPC   C3B 7601  16.708   9.998   2.795
  634DOPC   C4B 7602  16.827   0.195   3.233
  635DOPC   NC3 7603   3.802   1.147   1.007
  635DOPC   PO4 7604   3.411   1.207   1.046
  635DOPC   GL1 7605   3.235   1.275   1.438
  635DOPC   GL2 7606   3.511   1.121   1.510
  635DOPC   C1A 7607   3.191   1.331   1.867
  635DOPC   D2A 7608   3.448   1.476   2.290
  635DOPC   C3A 7609   3.377   1.406   2.762
  635DOPC   C4A 7610   3.210   1.269   3.225
  635DOPC   C1B 7611   3.581   1.057   1.966
  635DOPC   D2B 7612   3.333   1.003   2.409
  635DOPC   C3B 7613   3.307   0.906   2.859
  635DOPC   C4B 7614   3.507   0.838   3.307
  636DOPC   NC3 7615   3.970   6.488   1.174
  636DOPC   PO4 7616   4.117   6.829   1.326
  636DOPC   GL1 7617   4.198   6.530   1.615
  636DOPC   GL2 7618   4.482   6.453   1.537
  636DOPC   C1A 7619   4.127   6.635   2.050
  636DOPC   D2A 7620   4.078   6.903   2.461
  636DOPC   C3A 7621   3.939   6.974   2.899
  636DOPC   C4A 7622   3.822   7.043   3.369
  636DOPC   C1B 7623   4.599   6.456   1.956
  636DOPC   D2B 7624   4.547   6.689   2.406
  636DOPC   C3B 7625   4.335   6.649   2.836
  636DOPC   C4B 7626   4.216   6.677   3.318
  637DOPC   NC3 7627   4.034   9.189   1.068
  637DOPC   PO4 7628   4.209   9.502   1.242
  637DOPC   GL1 7629   4.286   9.195   1.513
  637DOPC   GL2 7630   4.581   9.255   1.540
  637DOPC   C1A 7631   4.119   9.183   1.934
  637DOPC   D2A 7632   3.945   9.402   2.344
  637DOPC   C3A 7633   4.139   9.412   2.764
  637DOPC   C4A 7634   4.220   9.623   3.198
  637DOPC   C1B 7635   4.537   9.459   1.944
  637DOPC   D2B 7636   4.550   9.414   2.454
  637DOPC   C3B 7637   4.613   9.633   2.881
  637DOPC   C4B 7638   4.637   9.867   3.334
  638DOPC   NC3 7639  12.577   2.883   1.361
  638DOPC   PO4 7640  12.906   2.652   1.434
  638DOPC   GL1 7641  12.857   2.275   1.639
  638DOPC   GL2 7642  12.548   2.305   1.616
  638DOPC   C1A 7643  12.956   2.279   2.070
  638DOPC   D2A 7644  13.026   2.304   2.563
  638DOPC   C3A 7645  12.973   2.539   2.973
  638DOPC   C4A 7646  12.871   2.956   3.235
  638DOPC   C1B 7647  12.455   2.420   2.053
  638DOPC   D2B 7648  12.469   2.379   2.561
  638DOPC   C3B 7649  12.454   2.616   2.975
  638DOPC   C4B 7650  12.444   2.734   3.470
  639DOPC   NC3 7651   1.620   5.802   1.238
  639DOPC   PO4 7652   1.748   6.158   1.352
  639DOPC   GL1 7653   1.602   6.002   1.719
  639DOPC   GL2 7654   1.764   5.720   1.686
  639DOPC   C1A 7655   1.703   6.068   2.148
  639DOPC   D2A 7656   1.733   6.178   2.645
  639DOPC   C3A 7657   1.654   6.105   3.112
  639DOPC   C4A 7658   1.571   5.846   3.535
  639DOPC   C1B 7659   1.866   5.550   2.114
  639DOPC   D2B 7660   2.034   5.506   2.597
  639DOPC   C3B 7661   2.014   5.731   3.024
  639DOPC   C4B 7662   2.076   5.867   3.504
  640DOPC   NC3 7663  16.630   3.681   1.360
  640DOPC   PO4 7664  16.719   3.400   1.092
  640DOPC   GL1 7665  16.764   3.242   1.471
  640DOPC   GL2 7666  16.503   3.128   1.549
  640DOPC   C1A 7667  16.845   3.436   1.855
  640DOPC   D2A 7668  16.919   3.446   2.351
  640DOPC   C3A 7669  16.824   3.463   2.816
  640DOPC   C4A 7670  16.594   3.603   3.241
  640DOPC   C1B 7671  16.397   3.183   1.995
  640DOPC   D2B 7672  16.406   3.325   2.488
  640DOPC   C3B 7673  16.397   3.198   2.957
  640DOPC   C4B 7674  16.383   3.188   3.456
  641DOPC   NC3 7675   1.484   0.632   1.354
  641DOPC   PO4 7676   1.110   0.779   1.331
  641DOPC   GL1 7677   0.988   0.735   1.765
  641DOPC   GL2 7678   1.251   0.558   1.766
  641DOPC   C1A 7679   1.039   0.724   2.205
  641DOPC   D2A 7680   1.220   0.558   2.651
  641DOPC   C3A 7681   1.133   0.601   3.119
  641DOPC   C4A 7682   1.227   0.850   3.542
  641DOPC   C1B 7683   1.341   0.303   2.127
  641DOPC   D2B 7684   1.386   0.053   2.567
  641DOPC   C3B 7685   1.482   0.225   2.997
  641DOPC   C4B 7686   1.423   0.312   3.485
  642DOPC   NC3 7687   6.944   4.855   1.065
  642DOPC   PO4 7688   6.592   4.708   1.193
  642DOPC   GL1 7689   6.343   4.984   1.424
  642DOPC   GL2 7690   6.597   5.138   1.512
  642DOPC   C1A 7691   6.259   4.926   1.844
  642DOPC   D2A 7692   6.502   4.895   2.295
  642DOPC   C3A 7693   6.516   4.875   2.771
  642DOPC   C4A 7694   6.409   4.836   3.260
  642DOPC   C1B 7695   6.548   5.321   1.943
  642DOPC   D2B 7696   6.574   5.445   2.455
  642DOPC   C3B 7697   6.584   5.356   2.939
  642DOPC   C4B 7698   6.559   5.279   3.443
  643DOPC   NC3 7699   2.571   1.901   0.977
  643DOPC   PO4 7700   2.372   1.571   1.099
  643DOPC   GL1 7701   2.286   1.644   1.524
  643DOPC   GL2 7702   2.538   1.819   1.543
  643DOPC   C1A 7703   2.213   1.543   1.952
  643DOPC   D2A 7704   2.504   1.593   2.369
  643DOPC   C3A 7705   2.470   1.703   2.817
  643DOPC   C4A 7706   2.388   1.877   3.279
  643DOPC   C1B 7707   2.510   1.968   1.974
  643DOPC   D2B 7708   2.531   2.105   2.464
  643DOPC   C3B 7709   2.713   2.130   2.899
  643DOPC   C4B 7710   2.859   2.079   3.365
  644DOPC   NC3 7711  19.530   4.127   1.114
  644DOPC   PO4 7712  19.554   4.521   1.195
  644DOPC   GL1 7713  19.342   4.538   1.589
  644DOPC   GL2 7714  19.361   4.217   1.577
  644DOPC   C1A 7715  19.453   4.528   2.027
  644DOPC   D2A 7716  19.730   4.452   2.451
  644DOPC   C3A 7717  19.657   4.481   2.915
  644DOPC   C4A 7718  19.333   4.488   3.306
  644DOPC   C1B 7719  19.631   4.052   1.914
  644DOPC   D2B 7720  19.925   3.976   2.334
  644DOPC   C3B 7721  19.787   4.009   2.799
  644DOPC   C4B 7722  19.751   4.164   3.293
  645DOPC   NC3 7723   3.443   6.381   1.107
  645DOPC   PO4 7724   3.580   6.751   1.037
  645DOPC   GL1 7725   3.659   6.829   1.437
  645DOPC   GL2 7726   3.507   7.081   1.487
  645DOPC   C1A 7727   3.660   6.656   1.847
  645DOPC   D2A 7728   3.667   6.616   2.360
  645DOPC   C3A 7729   3.786   6.483   2.811
  645DOPC   C4A 7730   3.760   6.455   3.315
  645DOPC   C1B 7731   3.440   7.116   1.945
  645DOPC   D2B 7732   3.221   7.118   2.401
  645DOPC   C3B 7733   3.109   6.914   2.809
  645DOPC   C4B 7734   3.045   6.676   3.240
  646DOPC   NC3 7735  14.598   2.276   1.006
  646DOPC   PO4 7736  14.396   1.991   1.207
  646DOPC   GL1 7737  14.591   1.928   1.619
  646DOPC   GL2 7738  14.471   1.645   1.572
  646DOPC   C1A 7739  14.477   2.068   2.057
  646DOPC   D2A 7740  14.394   2.196   2.559
  646DOPC   C3A 7741  14.378   2.167   3.037
  646DOPC   C4A 7742  14.332   2.113   3.533
  646DOPC   C1B 7743  14.128   1.738   1.860
  646DOPC   D2B 7744  13.973   1.949   2.296
  646DOPC   C3B 7745  14.074   1.849   2.748
  646DOPC   C4B 7746  14.145   1.690   3.222
  647DOPC   NC3 7747   3.689   3.363   0.642
  647DOPC   PO4 7748   3.680   3.271   1.031
  647DOPC   GL1 7749   3.875   3.260   1.444
  647DOPC   GL2 7750   4.079   3.460   1.359
  647DOPC   C1A 7751   3.901   3.237   1.894
  647DOPC   D2A 7752   3.921   3.142   2.390
  647DOPC   C3A 7753   3.682   3.148   2.799
  647DOPC   C4A 7754   3.475   3.123   3.250
  647DOPC   C1B 7755   4.137   3.697   1.758
  647DOPC   D2B 7756   4.216   3.799   2.266
  647DOPC   C3B 7757   4.073   3.682   2.718
  647DOPC   C4B 7758   3.838   3.545   3.146
  648DOPC   NC3 7759  16.153   8.892   1.253
  648DOPC   PO4 7760  16.454   8.624   1.215
  648DOPC   GL1 7761  16.405   8.538   1.669
  648DOPC   GL2 7762  16.207   8.763   1.687
  648DOPC   C1A 7763  16.347   8.643   2.119
  648DOPC   D2A 7764  16.130   8.978   2.434
  648DOPC   C3A 7765  16.014   8.911   2.887
  648DOPC   C4A 7766  15.970   8.748   3.349
  648DOPC   C1B 7767  15.859   8.701   1.973
  648DOPC   D2B 7768  15.482   8.528   2.260
  648DOPC   C3B 7769  15.479   8.690   2.702
  648DOPC   C4B 7770  15.496   8.900   3.157
  649DOPC   NC3 7771   8.886   2.674   1.300
  649DOPC   PO4 7772   8.555   2.445   1.359
  649DOPC   GL1 7773   8.523   2.548   1.765
  649DOPC   GL2 7774   8.352   2.790   1.700
  649DOPC   C1A 7775   8.698   2.539   2.190
  649DOPC   D2A 7776   8.780   2.460   2.694
  649DOPC   C3A 7777   9.059   2.439   3.070
  649DOPC   C4A 7778   9.274   2.635   3.470
  649DOPC   C1B 7779   8.368   2.996   2.104
  649DOPC   D2B 7780   8.350   3.256   2.554
  649DOPC   C3B 7781   8.408   3.122   3.018
  649DOPC   C4B 7782   8.374   2.751   3.370
  650DOPC   NC3 7783  18.864   0.589   1.098
  650DOPC   PO4 7784  18.487   0.691   1.202
  650DOPC   GL1 7785  18.674   0.548   1.570
  650DOPC   GL2 7786  18.776   0.814   1.606
  650DOPC   C1A 7787  18.610   0.371   1.980
  650DOPC   D2A 7788  18.725   0.094   2.393
  650DOPC   C3A 7789  18.836   0.210   2.843
  650DOPC   C4A 7790  18.959   0.397   3.290
  650DOPC   C1B 7791  18.753   0.885   2.047
  650DOPC   D2B 7792  18.963   0.868   2.507
  650DOPC   C3B 7793  18.779   0.751   2.919
  650DOPC   C4B 7794  18.540   0.698   3.346
  651DOPC   NC3 7795  18.879   7.991   1.271
  651DOPC   PO4 7796  18.516   8.106   1.385
  651DOPC   GL1 7797  18.671   8.124   1.738
  651DOPC   GL2 7798  18.969   8.144   1.714
  651DOPC   C1A 7799  18.571   8.182   2.157
  651DOPC   D2A 7800  18.787   8.088   2.602
  651DOPC   C3A 7801  18.838   8.075   3.075
  651DOPC   C4A 7802  18.850   8.024   3.580
  651DOPC   C1B 7803  19.094   8.221   2.157
  651DOPC   D2B 7804  19.112   8.504   2.582
  651DOPC   C3B 7805  19.101   8.512   3.053
  651DOPC   C4B 7806  19.288   8.162   3.363
  652DOPC   NC3 7807   1.170   5.762   1.012
  652DOPC   PO4 7808   0.932   5.679   1.318
  652DOPC   GL1 7809   1.035   5.779   1.690
  652DOPC   GL2 7810   1.318   5.672   1.585
  652DOPC   C1A 7811   0.872   5.645   2.089
  652DOPC   D2A 7812   0.671   5.447   2.517
  652DOPC   C3A 7813   0.921   5.615   2.895
  652DOPC   C4A 7814   1.185   5.915   3.201
  652DOPC   C1B 7815   1.393   5.650   2.003
  652DOPC   D2B 7816   1.543   5.711   2.481
  652DOPC   C3B 7817   1.503   5.602   2.932
  652DOPC   C4B 7818   1.278   5.443   3.336
  653DOPC   NC3 7819   2.754   5.340   1.148
  653DOPC   PO4 7820   2.441   5.174   1.331
  653DOPC   GL1 7821   2.662   5.001   1.631
  653DOPC   GL2 7822   2.938   5.132   1.535
  653DOPC   C1A 7823   2.555   5.089   2.047
  653DOPC   D2A 7824   2.382   5.094   2.513
  653DOPC   C3A 7825   2.548   4.970   2.933
  653DOPC   C4A 7826   2.682   4.914   3.402
  653DOPC   C1B 7827   3.080   5.157   1.953
  653DOPC   D2B 7828   2.926   5.191   2.435
  653DOPC   C3B 7829   3.093   5.172   2.870
  653DOPC   C4B 7830   3.208   5.142   3.362
  654DOPC   NC3 7831   9.628   3.456   0.809
  654DOPC   PO4 7832   9.597   3.462   1.203
  654DOPC   GL1 7833   9.429   3.641   1.559
  654DOPC   GL2 7834   9.749   3.674   1.620
  654DOPC   C1A 7835   9.332   3.498   1.958
  654DOPC   D2A 7836   9.310   3.287   2.411
  654DOPC   C3A 7837   9.386   3.417   2.849
  654DOPC   C4A 7838   9.429   3.652   3.286
  654DOPC   C1B 7839   9.878   3.488   2.002
  654DOPC   D2B 7840   9.876   3.287   2.466
  654DOPC   C3B 7841   9.890   3.438   2.908
  654DOPC   C4B 7842   9.844   3.326   3.387
  655DOPC   NC3 7843  11.114   0.506   1.211
  655DOPC   PO4 7844  11.151   0.124   1.330
  655DOPC   GL1 7845  11.199   0.241   1.737
  655DOPC   GL2 7846  11.170   0.547   1.671
  655DOPC   C1A 7847  11.239   0.181   2.183
  655DOPC   D2A 7848  11.132   0.117   2.674
  655DOPC   C3A 7849  11.314   0.188   3.113
  655DOPC   C4A 7850  11.410   0.219   3.608
  655DOPC   C1B 7851  10.971   0.685   2.032
  655DOPC   D2B 7852  10.833   0.524   2.490
  655DOPC   C3B 7853  10.907   0.500   2.964
  655DOPC   C4B 7854  11.038   0.536   3.441
  656DOPC   NC3 7855   5.916   2.918   1.036
  656DOPC   PO4 7856   5.625   3.158   1.190
  656DOPC   GL1 7857   5.888   2.999   1.521
  656DOPC   GL2 7858   5.706   2.752   1.483
  656DOPC   C1A 7859   6.026   2.832   1.913
  656DOPC   D2A 7860   5.988   2.777   2.412
  656DOPC   C3A 7861   6.155   2.801   2.857
  656DOPC   C4A 7862   6.281   3.002   3.298
  656DOPC   C1B 7863   5.570   2.594   1.891
  656DOPC   D2B 7864   5.588   2.454   2.374
  656DOPC   C3B 7865   5.643   2.659   2.791
  656DOPC   C4B 7866   5.766   2.788   3.245
  657DOPC   NC3 7867  14.448   5.672   0.921
  657DOPC   PO4 7868  14.724   5.436   1.088
  657DOPC   GL1 7869  14.457   5.401   1.387
  657DOPC   GL2 7870  14.275   5.603   1.366
  657DOPC   C1A 7871  14.516   5.331   1.802
  657DOPC   D2A 7872  14.602   5.342   2.275
  657DOPC   C3A 7873  14.525   5.377   2.731
  657DOPC   C4A 7874  14.417   5.442   3.209
  657DOPC   C1B 7875  14.192   5.725   1.798
  657DOPC   D2B 7876  14.228   5.688   2.317
  657DOPC   C3B 7877  14.168   5.755   2.796
  657DOPC   C4B 7878  14.066   5.851   3.282
  658DOPC   NC3 7879  15.444   6.684   1.243
  658DOPC   PO4 7880  15.545   7.044   1.405
  658DOPC   GL1 7881  15.925   7.001   1.530
  658DOPC   GL2 7882  15.907   6.702   1.552
  658DOPC   C1A 7883  16.019   7.151   1.953
  658DOPC   D2A 7884  16.086   7.296   2.433
  658DOPC   C3A 7885  15.967   7.133   2.864
  658DOPC   C4A 7886  15.794   6.896   3.270
  658DOPC   C1B 7887  16.083   6.654   1.972
  658DOPC   D2B 7888  16.244   6.800   2.437
  658DOPC   C3B 7889  16.114   6.619   2.861
  658DOPC   C4B 7890  15.938   6.347   3.244
  659DOPC   NC3 7891  15.895   3.510   1.126
  659DOPC   PO4 7892  16.219   3.327   1.252
  659DOPC   GL1 7893  16.216   3.476   1.680
  659DOPC   GL2 7894  15.910   3.463   1.591
  659DOPC   C1A 7895  16.009   3.518   2.083
  659DOPC   D2A 7896  15.691   3.624   2.459
  659DOPC   C3A 7897  15.810   3.837   2.867
  659DOPC   C4A 7898  15.979   3.975   3.313
  659DOPC   C1B 7899  15.794   3.115   1.837
  659DOPC   D2B 7900  15.783   3.081   2.341
  659DOPC   C3B 7901  15.943   3.288   2.743
  659DOPC   C4B 7902  15.993   3.482   3.203
  660DOPC   NC3 7903  11.001   0.964   1.456
  660DOPC   PO4 7904  10.909   1.294   1.243
  660DOPC   GL1 7905  10.921   1.489   1.615
  660DOPC   GL2 7906  10.626   1.538   1.591
  660DOPC   C1A 7907  10.900   1.205   1.954
  660DOPC   D2A 7908  10.621   0.983   2.317
  660DOPC   C3A 7909  10.587   0.884   2.779
  660DOPC   C4A 7910  10.686   0.888   3.267
  660DOPC   C1B 7911  10.393   1.362   1.939
  660DOPC   D2B 7912  10.126   1.163   2.317
  660DOPC   C3B 7913  10.162   1.190   2.776
  660DOPC   C4B 7914  10.288   1.225   3.255
  661DOPC   NC3 7915  12.874   5.747   1.147
  661DOPC   PO4 7916  12.829   5.359   1.246
  661DOPC   GL1 7917  12.660   5.417   1.660
  661DOPC   GL2 7918  12.691   5.731   1.580
  661DOPC   C1A 7919  12.819   5.345   2.086
  661DOPC   D2A 7920  13.010   5.423   2.554
  661DOPC   C3A 7921  12.929   5.472   3.031
  661DOPC   C4A 7922  13.010   5.547   3.532
  661DOPC   C1B 7923  12.645   6.074   1.875
  661DOPC   D2B 7924  12.520   6.180   2.362
  661DOPC   C3B 7925  12.516   6.013   2.811
  661DOPC   C4B 7926  12.564   5.776   3.250
  662DOPC   NC3 7927   3.630   4.414   1.103
  662DOPC   PO4 7928   3.236   4.333   1.137
  662DOPC   GL1 7929   3.386   4.495   1.515
  662DOPC   GL2 7930   3.503   4.229   1.595
  662DOPC   C1A 7931   3.381   4.612   1.928
  662DOPC   D2A 7932   3.602   4.549   2.386
  662DOPC   C3A 7933   3.476   4.429   2.819
  662DOPC   C4A 7934   3.316   4.212   3.233
  662DOPC   C1B 7935   3.667   4.183   2.036
  662DOPC   D2B 7936   3.795   4.089   2.540
  662DOPC   C3B 7937   3.792   4.056   3.030
  662DOPC   C4B 7938   3.638   3.887   3.493
  663DOPC   NC3 7939  11.162   2.557   1.139
  663DOPC   PO4 7940  11.080   2.930   1.258
  663DOPC   GL1 7941  11.102   2.632   1.623
  663DOPC   GL2 7942  11.388   2.682   1.525
  663DOPC   C1A 7943  11.045   2.622   2.092
  663DOPC   D2A 7944  10.985   2.668   2.608
  663DOPC   C3A 7945  11.198   2.625   3.041
  663DOPC   C4A 7946  11.624   2.423   3.235
  663DOPC   C1B 7947  11.426   2.931   1.872
  663DOPC   D2B 7948  11.267   3.032   2.324
  663DOPC   C3B 7949  11.302   3.044   2.784
  663DOPC   C4B 7950  11.690   2.882   3.038
  664DOPC   NC3 7951  12.104   6.459   1.141
  664DOPC   PO4 7952  12.032   6.090   1.289
  664DOPC   GL1 7953  12.190   6.168   1.666
  664DOPC   GL2 7954  12.277   6.460   1.593
  664DOPC   C1A 7955  12.107   6.073   2.087
  664DOPC   D2A 7956  12.076   5.945   2.573
  664DOPC   C3A 7957  12.062   6.068   3.041
  664DOPC   C4A 7958  12.031   6.095   3.532
  664DOPC   C1B 7959  12.073   6.607   1.958
  664DOPC   D2B 7960  12.015   6.457   2.431
  664DOPC   C3B 7961  11.987   6.582   2.883
  664DOPC   C4B 7962  12.085   6.583   3.368
  665DOPC   NC3 7963  17.424   5.897   1.029
  665DOPC   PO4 7964  17.498   5.504   0.995
  665DOPC   GL1 7965  17.358   5.434   1.435
  665DOPC   GL2 7966  17.401   5.733   1.470
  665DOPC   C1A 7967  17.397   5.420   1.890
  665DOPC   D2A 7968  17.414   5.480   2.392
  665DOPC   C3A 7969  17.365   5.613   2.850
  665DOPC   C4A 7970  17.411   5.583   3.355
  665DOPC   C1B 7971  17.341   5.929   1.884
  665DOPC   D2B 7972  17.283   6.009   2.396
  665DOPC   C3B 7973  17.421   6.144   2.841
  665DOPC   C4B 7974  17.594   6.384   3.249
  666W        W 7975   7.596   5.739   7.354
  667W        W 7976   3.779   1.802   6.603
  668W        W 7977  12.091   8.969   9.229
  669W        W 7978   5.052   6.534   7.518
  670W        W 7979   1.519   8.293   0.566
  671W        W 7980   7.396   6.799   6.080
  672W        W 7981  18.251   4.174   0.859
  673W        W 7982  12.389   5.137   5.820
  674W        W 7983  10.710   3.671   9.479
  675W        W 7984  18.245   2.530   8.970
  676W        W 7985  18.895   5.600   8.711
  677W        W 7986  19.027   2.297   0.853
  678W        W 7987  14.621   6.090   7.843
  679W        W 7988   8.075   6.493   6.595
  680W        W 7989  19.693   5.136   9.751
  681W        W 7990  12.710   0.217   7.329
  682W        W 7991   9.692   8.386   7.239
  683W        W 7992  14.152   4.780   7.484
  684W        W 7993  17.916   9.507   6.366
  685W        W 7994  10.732   7.079   9.267
  686W        W 7995  10.556   7.053   6.056
  687W        W 7996  15.468   7.576   6.204
  688W        W 7997  15.655   8.830   9.091
  689W        W 7998  12.536   6.968   9.838
  690W        W 7999  15.041   9.049   6.334
  691W        W 8000   7.971   2.762   9.600
  692W        W 8001   0.338   7.503   7.942
  693W        W 8002  18.958   8.726   0.149
  694W        W 8003  13.762   4.468   6.074
  695W        W 8004   0.631   8.661   6.067
  696W        W 8005  11.300   0.539   9.537
  697W        W 8006  12.985   4.766   7.384
  698W        W 8007  15.357   0.311   9.484
  699W        W 8008  18.159   5.068   8.826
  700W        W 8009   5.995   7.491   7.910
  701W        W 8010   1.246   4.059   8.225
  702W        W 8011  13.114   2.619   7.557
  703W        W 8012   2.406   7.827   0.152
  704W        W 8013   3.095   2.970   8.407
  705W        W 8014  18.213   2.609   7.406
  706W        W 8015   5.594   5.518   5.905
  707W        W 8016  16.150   5.320   7.424
  708W        W 8017  18.387   5.547   8.808
  709W        W 8018   5.973   6.551   7.059
  710W        W 8019  14.848   6.604   8.670
  711W        W 8020   6.077   1.938   0.539
  712W        W 8021   8.050   1.656   8.430
  713W        W 8022   6.379   4.609   8.073
  714W        W 8023  12.905   4.634   6.863
  715W        W 8024  19.912   4.651   7.200
  716W        W 8025   6.975   6.054   6.395
  717W        W 8026   6.640   6.185   0.008
  718W        W 8027   8.916   7.928   6.792
  719W        W 8028  16.275   6.965   8.544
  720W        W 8029  10.180   9.772   6.954
  721W        W 8030   1.656   4.516   9.383
  722W        W 8031  17.820   2.247   8.444
  723W        W 8032  13.364   8.708   9.205
  724W        W 8033  17.345   7.292   9.275
  725W        W 8034  14.484   6.434   7.399
  726W        W 8035   9.017   7.073   7.832
  727W        W 8036  13.881   2.535   6.787
  728W        W 8037  13.584   4.498   8.574
  729W        W 8038  15.549   1.160   7.514
  730W        W 8039  11.818   6.929   9.148
  731W        W 8040   0.189   9.353   6.476
  732W        W 8041   1.245   3.551   0.363
  733W        W 8042   4.226   1.347   9.318
  734W        W 8043  19.832   7.584   7.253
  735W        W 8044  18.550   2.750   6.058
  736W        W 8045   9.282   8.200   8.002
  737W        W 8046   3.208   1.580   9.357
  738W        W 8047   8.343   9.527   6.501
  739W        W 8048   5.197   9.794   9.906
  740W        W 8049  10.918   0.141   9.838
  741W        W 8050  16.502   6.971   0.254
  742W        W 8051  11.905   1.607   9.850
  743W        W 8052  11.018   8.386   7.574
  744W        W 8053   4.325   5.931   6.765
  745W        W 8054   7.151   6.376   9.987
  746W        W 8055   9.099   8.411   8.421
  747W        W 8056  18.781   5.207   6.987
  748W        W 8057   7.754   3.518   0.379
  749W        W 8058  19.085   2.218   0.336
  750W        W 8059  19.372   6.797   6.996
  751W        W 8060  13.753   3.611   7.331
  752W        W 8061  16.741   4.630   6.063
  753W        W 8062   8.858   6.344   0.260
  754W        W 8063  15.379   1.351   8.950
  755W        W 8064  13.980   0.134   0.746
  756W        W 8065  16.786   4.842   7.520
  757W        W 8066   8.242   7.431   8.002
  758W        W 8067   5.156   9.035   8.340
  759W        W 8068  16.770   5.494   9.925
  760W        W 8069   2.029   0.765   7.731
  761W        W 8070   7.854   6.102   8.223
  762W        W 8071   5.170   7.331   8.343
  763W        W 8072  16.565   2.877   0.618
  764W        W 8073   3.281   2.348   6.869
  765W        W 8074  13.059   6.943   8.879
  766W        W 8075   6.878   1.279   0.181
  767W        W 8076  14.935   1.979   7.481
  768W        W 8077  19.703   8.847   7.843
  769W        W 8078   6.169   5.104   9.965
  770W        W 8079  12.943   9.950   9.343
  771W        W 8080  13.071   1.281   8.577
  772W        W 8081   4.050   4.593   8.516
  773W        W 8082  15.242   8.983   9.463
  774W        W 8083   1.257   5.337   8.000
  775W        W 8084   1.152   9.276   6.890
  776W        W 8085   6.100   2.905   0.353
  777W        W 8086   7.123   7.979   7.313
  778W        W 8087  10.158   5.537   6.196
  779W        W 8088   8.239   9.626   7.993
  780W        W 8089  18.127   9.242   0.186
  781W        W 8090  15.523   3.320   0.128
  782W        W 8091   9.163   4.018   7.501
  783W        W 8092  12.248   8.048   6.735
  784W        W 8093   7.252   2.108   7.557
  785W        W 8094  10.518   3.807   0.430
  786W        W 8095   2.866   3.174   9.865
  787W        W 8096   5.334   2.504   0.399
  788W        W 8097   6.404   2.100   9.148
  789W        W 8098   1.420   8.759   8.382
  790W        W 8099   1.827   0.451   0.138
  791W        W 8100   6.428   2.588   6.069
  792W        W 8101  12.524   6.230   9.935
  793W        W 8102   9.810   1.519   7.094
  794W        W 8103  14.598   9.353   0.476
  795W        W 8104   0.108   8.947   9.597
  796W        W 8105   7.973   8.449   0.722
  797W        W 8106   7.054   0.396   0.754
  798W        W 8107   8.490   6.443   0.608
  799W        W 8108  12.078   0.619   7.883
  800W        W 8109   4.111   2.472   1.026
  801W        W 8110   4.053   8.397   7.473
  802W        W 8111   1.891   8.737   7.038
  803W        W 8112  19.609   9.774   7.543
  804W        W 8113  11.393   4.073   8.040
  805W        W 8114  15.987   0.096   7.623
  806W        W 8115  17.378   8.436   6.993
  807W        W 8116  12.370   1.745   0.003
  808W        W 8117   9.133   0.892   8.624
  809W        W 8118   8.414   5.046   9.694
  810W        W 8119  11.515   2.475   0.202
  811W        W 8120  15.788   2.577   9.578
  812W        W 8121   3.102   5.387   6.614
  813W        W 8122  17.317   2.996   6.474
  814W        W 8123  18.937   7.100   6.136
  815W        W 8124  13.878   8.808   0.873
  816W        W 8125   8.592   7.036   6.654
  817W        W 8126  17.251   4.126   0.791
  818W        W 8127   1.151   8.974   8.748
  819W        W 8128  16.783   6.096   7.757
  820W        W 8129  17.975   4.581   8.478
  821W        W 8130   9.891   5.241   5.828
  822W        W 8131  12.142   3.463   9.899
  823W        W 8132  12.654   2.612   7.792
  824W        W 8133  11.178   2.078   9.947
  825W        W 8134   3.718   4.678   7.732
  826W        W 8135   1.437   3.309   9.703
  827W        W 8136  19.117   2.737   7.869
  828W        W 8137   2.610   9.875   7.864
  829W        W 8138   7.521   8.394   6.777
  830W        W 8139  10.097   4.618   6.787
  831W        W 8140   8.498   6.554   6.930
  832W        W 8141   0.641   4.431   5.714
  833W        W 8142  14.683   6.750   6.507
  834W        W 8143  10.985   8.914   0.585
  835W        W 8144  10.389   8.062   6.665
  836W        W 8145   0.327   7.519   7.412
  837W        W 8146   2.670   7.911   8.841
  838W        W 8147   8.080   7.146   8.982
  839W        W 8148  15.884   4.804   6.136
  840W        W 8149   9.378   1.426   0.016
  841W        W 8150   9.102   9.115   7.520
  842W        W 8151  10.847   9.612   9.829
  843W        W 8152  19.925   7.242   8.094
  844W        W 8153  16.453   3.568   7.411
  845W        W 8154  16.806   5.866   6.302
  846W        W 8155  13.306   4.722   6.009
  847W        W 8156  18.276   6.581   6.318
  848W        W 8157  17.008   1.205   7.248
  849W        W 8158   9.728   4.101   7.456
  850W        W 8159  13.606   0.337   7.357
  851W        W 8160   5.883   1.826   0.052
  852W        W 8161   8.044   7.898   9.254
  853W        W 8162   4.628   2.551   6.821
  854W        W 8163  18.827   3.040   9.453
  855W        W 8164   3.986   3.777   7.472
  856W        W 8165   8.671   2.490   9.867
  857W        W 8166   1.256   9.226   8.021
  858W        W 8167  15.946   5.191   9.795
  859W        W 8168  11.740   3.371   0.527
  860W        W 8169  10.468   0.122   0.738
  861W        W 8170   6.763   4.161   6.665
  862W        W 8171   3.609   5.993   9.904
  863W        W 8172   4.825   5.003   7.025
  864W        W 8173  14.556   4.168   7.078
  865W        W 8174  14.904   5.944   9.790
  866W        W 8175  15.049   3.607   0.775
  867W        W 8176   0.596   1.209   0.607
  868W        W 8177   0.500   1.634   9.942
  869W        W 8178   1.764   9.872   5.971
  870W        W 8179   2.198   0.747   8.461
  871W        W 8180   6.068   8.205   7.444
  872W        W 8181   5.799   9.934   7.762
  873W        W 8182  11.124   6.076   7.352
  874W        W 8183  10.757   1.160   6.541
  875W        W 8184  19.839   0.883   9.284
  876W        W 8185   0.266   7.965   0.628
  877W        W 8186   7.372   9.388   9.927
  878W        W 8187  11.821   5.714   7.585
  879W        W 8188   3.493   9.395   6.982
  880W        W 8189  17.821   2.261   7.928
  881W        W 8190   2.837   1.812   9.635
  882W        W 8191   9.130   0.440   7.707
  883W        W 8192   9.846   8.919   6.578
  884W        W 8193   1.692   8.296   7.280
  885W        W 8194   2.600   0.350   6.593
  886W        W 8195   6.934   1.271   9.678
  887W        W 8196  19.896   6.958   8.842
  888W        W 8197  15.533   6.269   7.555
  889W        W 8198   1.675   9.736   9.779
  890W        W 8199   7.417   7.338   0.683
  891W        W 8200  13.874   9.384   6.590
  892W        W 8201   4.856   5.261   9.025
  893W        W 8202   4.129   1.541   0.931
  894W        W 8203  19.171   7.335   9.268
  895W        W 8204   4.663   0.266   6.933
  896W        W 8205  16.724   1.679   9.195
  897W        W 8206   5.564   2.062   6.982
  898W        W 8207   0.290   5.848   7.149
  899W        W 8208   6.375   2.581   9.379
  900W        W 8209   1.210   4.167   9.663
  901W        W 8210  16.482   5.154   9.153
  902W        W 8211   3.558   1.518   8.713
  903W        W 8212  13.723   2.450   0.424
  904W        W 8213   2.830   2.510   8.352
  905W        W 8214   9.091   2.607   0.634
  906W        W 8215  11.358   6.502   7.190
  907W        W 8216  17.242   2.338   6.770
  908W        W 8217   4.652   4.073   9.537
  909W        W 8218   5.415   1.479   7.304
  910W        W 8219  15.856   9.578   7.792
  911W        W 8220   1.498   1.388   7.346
  912W        W 8221  15.649   5.571   8.308
  913W        W 8222  16.802   7.008   7.301
  914W        W 8223  18.721   2.652   8.691
  915W        W 8224   6.062   9.291   7.238
  916W        W 8225  15.550   6.884   8.921
  917W        W 8226   4.488   9.281   6.315
  918W        W 8227  18.360   6.936   7.120
  919W        W 8228   6.813   8.889   6.089
  920W        W 8229  16.637   9.157   9.085
  921W        W 8230   8.888   1.308   0.432
  922W        W 8231  15.939   8.501   6.138
  923W        W 8232  13.143   2.230   8.737
  924W        W 8233  -0.000   9.420   8.303
  925W        W 8234  10.947   8.393   9.390
  926W        W 8235  15.203   1.433   6.952
  927W        W 8236  14.243   1.644   6.382
  928W        W 8237   4.705   0.660   9.755
  929W        W 8238   4.462   4.240   6.791
  930W        W 8239   9.153   4.353   6.638
  931W        W 8240   2.793   8.826   6.415
  932W        W 8241  15.914   2.127   9.828
  933W        W 8242  12.001   1.168   0.714
  934W        W 8243   3.735   2.674   6.846
  935W        W 8244  17.453   3.031   8.172
  936W        W 8245   9.934   0.217   6.823
  937W        W 8246   0.245   3.421   8.991
  938W        W 8247  13.744   2.576   0.929
  939W        W 8248   6.663   8.937   7.196
  940W        W 8249  16.217   0.404   9.060
  941W        W 8250   5.188   4.183   9.781
  942W        W 8251  16.855   3.998   0.431
  943W        W 8252  14.407   3.512   8.327
  944W        W 8253  18.480   0.562   5.959
  945W        W 8254   6.150   8.469   6.153
  946W        W 8255   4.391   8.203   7.882
  947W        W 8256  18.265   2.980   0.916
  948W        W 8257  15.173   1.755   8.542
  949W        W 8258   3.843   5.927   6.487
  950W        W 8259  17.438   3.057   8.690
  951W        W 8260  17.839   3.988   0.188
  952W        W 8261   6.331   8.322   9.686
  953W        W 8262  11.257   7.272   0.843
  954W        W 8263   1.625   1.300   8.865
  955W        W 8264  18.956   4.641   6.832
  956W        W 8265  16.746   9.923   6.491
  957W        W 8266  11.066   4.554   0.405
  958W        W 8267  11.344   7.650   6.984
  959W        W 8268   5.745   7.114   0.465
  960W        W 8269   3.992   6.890   9.170
  961W        W 8270   8.143   5.041   0.122
  962W        W 8271  12.559   8.818   8.088
  963W        W 8272   4.636   2.478   9.441
  964W        W 8273   2.105   1.526   0.640
  965W        W 8274  11.692   3.436   9.611
  966W        W 8275  15.793   2.999   1.239
  967W        W 8276  13.497   1.666   0.319
  968W        W 8277   2.726   5.145   8.764
  969W        W 8278  12.950   5.566   9.671
  970W        W 8279   8.053   2.795   6.964
  971W        W 8280  10.918   6.678   6.051
  972W        W 8281   0.117   7.444   0.822
  973W        W 8282   3.270   7.937   0.951
  974W        W 8283  15.059   3.635   7.643
  975W        W 8284   9.128   5.501   0.699
  976W        W 8285  10.068   1.346   0.634
  977W        W 8286  13.641   9.267   9.939
  978W        W 8287   1.182   4.368   6.437
  979W        W 8288   4.962   8.112   8.686
  980W        W 8289  11.875   2.055   7.034
  981W        W 8290   7.674   7.206   8.649
  982W        W 8291  14.837   5.952   8.295
  983W        W 8292   6.843   3.977   8.064
  984W        W 8293  14.817   1.709   0.041
  985W        W 8294   9.027   0.152   8.129
  986W        W 8295   9.959   6.808   0.696
  987W        W 8296   1.099   6.569   6.205
  988W        W 8297  12.669   5.167   6.258
  989W        W 8298  18.236   2.088   9.229
  990W        W 8299  10.348   6.588   7.457
  991W        W 8300   5.934   2.256   9.707
  992W        W 8301  17.893   4.928   0.411
  993W        W 8302   8.251   5.657   6.346
  994W        W 8303   5.052   8.314   0.721
  995W        W 8304   2.178   1.088   0.326
  996W        W 8305  19.610   1.294   9.545
  997W        W 8306  18.654   0.829   7.479
  998W        W 8307   3.051   5.440   8.501
  999W        W 8308   4.374   5.087   6.790
 1000W        W 8309  17.460   9.932   8.481
 1001W        W 8310   7.417   4.568   0.202
 1002W        W 8311   9.461   2.492   6.944
 1003W        W 8312   6.144   6.382   7.933
 1004W        W 8313   4.322   0.720   0.451
 1005W        W 8314  16.347   7.094   7.088
 1006W        W 8315   1.291   5.689   7.592
 1007W        W 8316  10.949   7.000   7.909
 1008W        W 8317  10.005   3.313   1.489
 1009W        W 8318  10.588   9.662   7.771
 1010W        W 8319   0.589   7.028   7.137
 1011W        W 8320  19.409   0.079   7.181
 1012W        W 8321   6.688   3.547   6.946
 1013W        W 8322   2.725   8.850   8.799
 1014W        W 8323   6.554   8.704   9.440
 1015W        W 8324   5.892   2.762   9.492
 1016W        W 8325   6.366   6.873   7.060
 1017W        W 8326   9.303   1.565   7.009
 1018W        W 8327   8.495   1.718   6.580
 1019W        W 8328   3.065   2.082   9.252
 1020W        W 8329  19.494   9.258   8.134
 1021W        W 8330   4.016   8.370   6.306
 1022W        W 8331  16.864   6.583   6.998
 1023W        W 8332  14.755   4.709   7.948
 1024W        W 8333  11.852   9.406   0.176
 1025W        W 8334  17.649   9.080   8.961
 1026W        W 8335  14.761   1.556   0.782
 1027W        W 8336  17.721   4.091   8.682
 1028W        W 8337  13.347   8.522   7.186
 1029W        W 8338  14.080   8.378   0.052
 1030W        W 8339  13.648   2.351   8.850
 1031W        W 8340  14.619   5.941   6.989
 1032W        W 8341  18.196   5.075   7.751
 1033W        W 8342  18.127   9.753   7.336
 1034W        W 8343   8.992   1.885   8.793
 1035W        W 8344   9.590   1.447   8.736
 1036W        W 8345   5.358   3.559   0.927
 1037W        W 8346  13.313   1.233   7.738
 1038W        W 8347  14.590   6.117   8.710
 1039W        W 8348   9.401   2.969   6.712
 1040W        W 8349  16.595   0.025   0.708
 1041W        W 8350   3.900   6.831   0.259
 1042W        W 8351   7.328   9.310   8.552
 1043W        W 8352  14.297   2.611   8.355
 1044W        W 8353  10.450   5.679   9.256
 1045W        W 8354  17.387   6.055   0.134
 1046W        W 8355  14.166   9.750   6.391
 1047W        W 8356   7.375   5.457   6.482
 1048W        W 8357   6.783   9.129   7.665
 1049W        W 8358   8.488   5.108   8.866
 1050W        W 8359   0.842   9.641   6.064
 1051W        W 8360   2.108   2.583   7.800
 1052W        W 8361   8.916   7.452   0.456
 1053W        W 8362  13.344   5.709   7.448
 1054W        W 8363  18.986   0.064   9.922
 1055W        W 8364  10.331   4.564   0.947
 1056W        W 8365   4.727   5.729   8.663
 1057W        W 8366   2.172   8.333   0.109
 1058W        W 8367  14.668   1.612   7.720
 1059W        W 8368   4.280   7.294   9.455
 1060W        W 8369  16.852   7.531   6.579
 1061W        W 8370   4.211   9.169   7.577
 1062W        W 8371   9.036   6.822   0.240
 1063W        W 8372  13.319   1.231   0.541
 1064W        W 8373   6.007   3.046   6.847
 1065W        W 8374   2.103   5.442   9.185
 1066W        W 8375  10.266   2.012   9.285
 1067W        W 8376   0.867   3.071   0.858
 1068W        W 8377   2.922   8.318   9.908
 1069W        W 8378  13.159   6.795   6.718
 1070W        W 8379  17.127   4.352   9.498
 1071W        W 8380   1.946   4.105   9.491
 1072W        W 8381   1.584   5.800   9.685
 1073W        W 8382  18.973   5.183   9.578
 1074W        W 8383  15.720   4.613   0.301
 1075W        W 8384   0.212   0.216   6.844
 1076W        W 8385  11.665   8.752   7.507
 1077W        W 8386   5.798   8.367   7.929
 1078W        W 8387  17.805   1.805   7.665
 1079W        W 8388  15.517   8.649   7.871
 1080W        W 8389   6.796   8.348   9.900
 1081W        W 8390   6.895   1.664   9.004
 1082W        W 8391  15.039   4.195   9.959
 1083W        W 8392   6.698   3.301   6.098
 1084W        W 8393  10.228   6.006   9.574
 1085W        W 8394   6.853   5.465   0.443
 1086W        W 8395   9.073   3.255   9.758
 1087W        W 8396  18.795   3.656   8.726
 1088W        W 8397   4.226   9.739   8.992
 1089W        W 8398   4.516   0.346   0.762
 1090W        W 8399   1.669   9.512   7.511
 1091W        W 8400   8.821   4.413   7.640
 1092W        W 8401   0.632   9.394   9.371
 1093W        W 8402   2.498   5.608   8.900
 1094W        W 8403  14.834   9.709   7.442
 1095W        W 8404  19.174   5.161   8.772
 1096W        W 8405   9.862   7.007   6.740
 1097W        W 8406   0.248   3.944   8.414
 1098W        W 8407   8.023   3.554   7.579
 1099W        W 8408  13.507   0.125   0.026
 1100W        W 8409  11.885   5.494   6.553
 1101W        W 8410  13.544   3.127   8.355
 1102W        W 8411  19.971   4.268   8.102
 1103W        W 8412  11.077   7.905   9.341
 1104W        W 8413  14.517   4.210   0.545
 1105W        W 8414   4.192   2.569   7.155
 1106W        W 8415  12.387   6.306   6.880
 1107W        W 8416   0.893   8.915   0.081
 1108W        W 8417  13.477   4.488   9.609
 1109W        W 8418  11.586   3.826   9.304
 1110W        W 8419  10.720   1.253   9.337
 1111W        W 8420  10.502   1.143   0.421
 1112W        W 8421  10.725   8.075   7.044
 1113W        W 8422  10.100   0.586   7.160
 1114W        W 8423  18.217   6.297   0.373
 1115W        W 8424  18.736   8.197   7.165
 1116W        W 8425   4.781   7.000   0.231
 1117W        W 8426  19.573   9.443   0.229
 1118W        W 8427  11.245   1.146   0.063
 1119W        W 8428   0.900   9.362   9.819
 1120W        W 8429   5.097   4.887   7.828
 1121W        W 8430   5.550   4.439   7.472
 1122W        W 8431  10.254   4.689   9.873
 1123W        W 8432   5.216   0.599   9.578
 1124W        W 8433   1.979   2.110   7.994
 1125W        W 8434  13.122   7.837   9.912
 1126W        W 8435   9.724   4.976   6.798
 1127W        W 8436  14.826   4.610   0.768
 1128W        W 8437   2.470   4.210   9.507
 1129W        W 8438   1.396   4.916   8.258
 1130W        W 8439  12.857   2.701   9.896
 1131W        W 8440  10.995   3.707   9.022
 1132W        W 8441   6.489   6.699   6.497
 1133W        W 8442   5.152   2.709   8.584
 1134W        W 8443   2.949   2.329   7.415
 1135W        W 8444   1.622   0.157   6.918
 1136W        W 8445  17.839   1.801   7.166
 1137W        W 8446  17.804   3.206   0.985
 1138W        W 8447  14.779   8.322   0.768
 1139W        W 8448  13.794   6.554   0.846
 1140W        W 8449   8.857   3.146   8.436
 1141W        W 8450   5.060   6.466   6.970
 1142W        W 8451  16.526   2.220   8.114
 1143W        W 8452  16.230   6.219   9.655
 1144W        W 8453  18.153   8.318   8.491
 1145W        W 8454  15.146   5.507   8.333
 1146W        W 8455   0.351   7.678   8.474
 1147W        W 8456   5.356   8.078   7.983
 1148W        W 8457  18.609   2.563   6.712
 1149W        W 8458   8.674   1.698   0.675
 1150W        W 8459   9.904   9.819   8.445
 1151W        W 8460   7.106   7.051   7.162
 1152W        W 8461  19.655   0.782   7.762
 1153W        W 8462  17.725   4.244   7.225
 1154W        W 8463   5.717   6.102   0.059
 1155W        W 8464  13.843   9.774   9.448
 1156W        W 8465  16.810   9.577   0.464
 1157W        W 8466   4.285   7.941   7.435
 1158W        W 8467   4.458   3.081   6.217
 1159W        W 8468   8.503   8.010   8.612
 1160W        W 8469  17.102   9.870   8.858
 1161W        W 8470   8.512   8.285   0.801
 1162W        W 8471   5.756   4.251   6.392
 1163W        W 8472  17.178   0.155   6.659
 1164W        W 8473  18.346   9.325   8.526
 1165W        W 8474  10.188   7.145   7.173
 1166W        W 8475   7.862   2.078   9.353
 1167W        W 8476  15.749   3.403   9.675
 1168W        W 8477   1.832   3.977   0.221
 1169W        W 8478   5.594   5.762   7.436
 1170W        W 8479   9.218   3.455   6.852
 1171W        W 8480  14.229   7.571   7.219
 1172W        W 8481   9.363   7.722   9.986
 1173W        W 8482  18.979   9.080   6.227
 1174W        W 8483  17.191   3.824   7.620
 1175W        W 8484   6.924   0.375   7.054
 1176W        W 8485   6.471   4.745   0.269
 1177W        W 8486  13.344   4.934   9.279
 1178W        W 8487   9.077   9.253   7.020
 1179W        W 8488   9.723   7.265   0.578
 1180W        W 8489   8.261   4.579   8.001
 1181W        W 8490  18.790   7.450   0.556
 1182W        W 8491  18.128   4.813   6.352
 1183W        W 8492   8.123   1.817   7.827
 1184W        W 8493  16.387   9.153   0.371
 1185W        W 8494  18.229   1.652   7.901
 1186W        W 8495  14.091   5.076   6.561
 1187W        W 8496  14.092   6.662   7.093
 1188W        W 8497  12.629   8.425   9.529
 1189W        W 8498  13.333   3.219   0.960
 1190W        W 8499  10.277   5.805   8.789
 1191W        W 8500  12.599   9.309   8.342
 1192W        W 8501  13.976   0.471   5.931
 1193W        W 8502  13.856   4.549   6.572
 1194W        W 8503  11.066   7.635   6.266
 1195W        W 8504   2.533   6.451   9.299
 1196W        W 8505  10.055   2.172   8.393
 1197W        W 8506  13.441   7.070   6.364
 1198W        W 8507  17.237   3.923   8.552
 1199W        W 8508  13.794   8.152   7.832
 1200W        W 8509  15.701   2.723   6.671
 1201W        W 8510  19.462   4.629   6.905
 1202W        W 8511   5.092   5.446   9.439
 1203W        W 8512  17.337   3.351   7.793
 1204W        W 8513  14.737   8.979   9.274
 1205W        W 8514   4.336   7.909   9.446
 1206W        W 8515   3.307   6.681   6.599
 1207W        W 8516   2.053   5.431   0.222
 1208W        W 8517   4.324   2.747   9.098
 1209W        W 8518  16.914   0.712   8.758
 1210W        W 8519   3.211   7.949   9.692
 1211W        W 8520  19.471   6.968   8.525
 1212W        W 8521  19.892   9.431   7.286
 1213W        W 8522  10.669   9.228   8.812
 1214W        W 8523  14.177   4.195   6.231
 1215W        W 8524  16.925   2.500   8.658
 1216W        W 8525   9.782   1.143   6.586
 1217W        W 8526   6.832   2.559   0.762
 1218W        W 8527  15.859   3.735   0.106
 1219W        W 8528  16.154   2.667   5.920
 1220W        W 8529  17.322   2.506   6.307
 1221W        W 8530   3.577   3.137   7.014
 1222W        W 8531  17.176   5.424   0.229
 1223W        W 8532  12.625   1.694   7.906
 1224W        W 8533  16.974   9.782   8.346
 1225W        W 8534  19.573   3.499   6.370
 1226W        W 8535   1.738   3.473   0.088
 1227W        W 8536   1.202   3.517   6.485
 1228W        W 8537   7.603   6.369   8.571
 1229W        W 8538   6.608   9.598   9.611
 1230W        W 8539   9.133   4.898   7.765
 1231W        W 8540  15.081   3.673   7.117
 1232W        W 8541   8.752   4.658   8.862
 1233W        W 8542  10.389   4.472   8.992
 1234W        W 8543  19.183   9.152   8.570
 1235W        W 8544   9.865   9.300   9.323
 1236W        W 8545  15.772   2.247   6.443
 1237W        W 8546   3.552   9.262   0.953
 1238W        W 8547   7.979   4.453   8.421
 1239W        W 8548   6.178   1.494   0.799
 1240W        W 8549  18.886   5.640   7.948
 1241W        W 8550   0.929   6.105   6.519
 1242W        W 8551  18.795   4.707   9.586
 1243W        W 8552  11.345   0.390   7.028
 1244W        W 8553  11.110   9.890   7.056
 1245W        W 8554  11.278   2.080   0.437
 1246W        W 8555   0.547   2.946   8.799
 1247W        W 8556   1.149   8.470   6.072
 1248W        W 8557   3.326   2.560   9.207
 1249W        W 8558   4.635   6.949   9.708
 1250W        W 8559   4.895   5.213   7.487
 1251W        W 8560   5.668   7.401   7.526
 1252W        W 8561   8.252   3.998   8.424
 1253W        W 8562   3.123   2.725   9.665
 1254W        W 8563  17.893   7.213   7.158
 1255W        W 8564   2.532   4.530   0.293
 1256W        W 8565   8.052   2.319   7.922
 1257W        W 8566   9.339   5.381   5.722
 1258W        W 8567   3.651   4.618   6.726
 1259W        W 8568  12.389   3.339   7.190
 1260W        W 8569   0.078   2.778   9.932
 1261W        W 8570   6.098   0.646   0.059
 1262W        W 8571   7.496   9.717   7.605
 1263W        W 8572   3.027   0.157   6.775
 1264W        W 8573  18.911   1.292   7.460
 1265W        W 8574  16.329   3.116   6.657
 1266W        W 8575  16.076   8.083   7.794
 1267W        W 8576   3.988   6.429   9.382
 1268W        W 8577  10.601   3.686   8.212
 1269W        W 8578  11.777   7.381   8.902
 1270W        W 8579   4.074   3.245   7.091
 1271W        W 8580   3.351   3.907   8.670
 1272W        W 8581   1.755   5.982   8.373
 1273W        W 8582  19.409   6.497   7.780
 1274W        W 8583   9.193   3.756   9.696
 1275W        W 8584   4.132   5.595   7.507
 1276W        W 8585   3.970   4.231   7.749
 1277W        W 8586   6.161   7.036   0.205
 1278W        W 8587  18.195   4.225   9.433
 1279W        W 8588  15.894   4.364   8.814
 1280W        W 8589   9.063   9.064   9.772
 1281W        W 8590   3.230   5.696   5.749
 1282W        W 8591   2.832   9.371   7.807
 1283W        W 8592  14.347   2.525   7.056
 1284W        W 8593   6.510   1.678   6.967
 1285W        W 8594  17.004   4.876   0.804
 1286W        W 8595  19.586   1.250   8.529
 1287W        W 8596  19.977   1.067   8.818
 1288W        W 8597  12.778   5.812   6.212
 1289W        W 8598  16.065   6.712   8.097
 1290W        W 8599   2.225   7.067   6.152
 1291W        W 8600   4.883   4.579   0.698
 1292W        W 8601  12.677   5.192   7.357
 1293W        W 8602  11.915   4.874   9.483
 1294W        W 8603   9.990   0.995   1.026
 1295W        W 8604  14.517   8.936   0.191
 1296W        W 8605   2.270   3.661   6.989
 1297W        W 8606  12.292   2.194   0.728
 1298W        W 8607   9.726   2.465   8.679
 1299W        W 8608   5.831   8.416   0.202
 1300W        W 8609   2.093   0.267   7.673
 1301W        W 8610  12.273   3.952   0.052
 1302W        W 8611   8.000   9.049   9.736
 1303W        W 8612  11.985   3.017   9.706
 1304W        W 8613   6.308   2.657   7.050
 1305W        W 8614   9.602   2.725   0.287
 1306W        W 8615   0.438   2.251   9.289
 1307W        W 8616   8.091   7.518   0.987
 1308W        W 8617  18.225   7.070   6.648
 1309W        W 8618  17.168   3.436   9.462
 1310W        W 8619   9.172   5.003   0.200
 1311W        W 8620   1.185   2.826   0.561
 1312W        W 8621  19.194   4.223   8.913
 1313W        W 8622  12.067   9.837   6.740
 1314W        W 8623  18.870   3.156   0.498
 1315W        W 8624   3.439   7.867   8.354
 1316W        W 8625  12.593   1.102   8.384
 1317W        W 8626   0.872   3.538   7.482
 1318W        W 8627  19.262   2.086   6.087
 1319W        W 8628  11.225   4.840   7.542
 1320W        W 8629   9.130   8.192   9.818
 1321W        W 8630  18.158   0.779   7.917
 1322W        W 8631   2.813   7.019   7.538
 1323W        W 8632   9.838   6.446   7.587
 1324W        W 8633   1.356   2.760   9.799
 1325W        W 8634  12.697   8.227   6.554
 1326W        W 8635  13.720   3.104   7.448
 1327W        W 8636  14.800   1.081   7.904
 1328W        W 8637   8.896   7.457   5.911
 1329W        W 8638   0.778   5.719   0.680
 1330W        W 8639  16.999   0.298   6.212
 1331W        W 8640   9.024   0.247   7.247
 1332W        W 8641  11.340   0.784   8.895
 1333W        W 8642  13.569   2.708   7.179
 1334W        W 8643  19.428   1.239   6.672
 1335W        W 8644   0.881   9.001   8.288
 1336W        W 8645  17.209   6.404   9.786
 1337W        W 8646  10.480   6.714   8.985
 1338W        W 8647  11.057   8.609   6.568
 1339W        W 8648   2.905   7.734   8.398
 1340W        W 8649  15.386   1.864   8.990
 1341W        W 8650  14.907   7.909   6.879
 1342W        W 8651  13.160   0.265   7.060
 1343W        W 8652  15.279   7.845   9.679
 1344W        W 8653  14.336   3.213   7.898
 1345W        W 8654   8.657   7.679   0.048
 1346W        W 8655  15.933   4.088   6.373
 1347W        W 8656  15.021   6.422   6.389
 1348W        W 8657  15.278   6.003   6.310
 1349W        W 8658   2.796   5.995   9.181
 1350W        W 8659  10.809   1.362   8.339
 1351W        W 8660   5.369   8.545   0.368
 1352W        W 8661   4.149   8.925   9.876
 1353W        W 8662   1.524   1.692   7.780
 1354W        W 8663   9.943   6.718   8.971
 1355W        W 8664   6.329   8.033   6.404
 1356W        W 8665  14.793   2.797   7.116
 1357W        W 8666  14.599   5.122   9.714
 1358W        W 8667  14.524   8.510   6.842
 1359W        W 8668   5.122   1.254   0.078
 1360W        W 8669  15.233   2.769   6.876
 1361W        W 8670  19.319   3.022   6.421
 1362W        W 8671   7.972   9.847   9.393
 1363W        W 8672   1.653   0.819   6.437
 1364W        W 8673  16.371   4.977   6.154
 1365W        W 8674   6.507   9.247   0.748
 1366W        W 8675   7.019   0.887   7.013
 1367W        W 8676   2.505   6.751   7.087
 1368W        W 8677   3.728   0.203   8.935
 1369W        W 8678   6.999   8.784   9.718
 1370W        W 8679   8.009   3.526   8.405
 1371W        W 8680   9.378   1.214   8.314
 1372W        W 8681  15.446   5.256   9.611
 1373W        W 8682  19.551   2.178   7.503
 1374W        W 8683  16.139   6.373   5.962
 1375W        W 8684   2.936   7.424   8.847
 1376W        W 8685   0.268   2.056   0.687
 1377W        W 8686   3.049   6.396   9.366
 1378W        W 8687  12.240   1.279   9.114
 1379W        W 8688   7.142   2.854   6.769
 1380W        W 8689   3.263   1.079   8.059
 1381W        W 8690   3.237   5.509   0.674
 1382W        W 8691   2.569   4.114   6.975
 1383W        W 8692   4.123   7.366   8.004
 1384W        W 8693   3.886   6.076   7.593
 1385W        W 8694  14.400   9.854   7.667
 1386W        W 8695   5.939   3.561   7.380
 1387W        W 8696   1.334   7.607   8.907
 1388W        W 8697  19.892   6.349   7.618
 1389W        W 8698   8.031   1.214   7.188
 1390W        W 8699  16.913   8.208   9.100
 1391W        W 8700  15.757   5.666   9.788
 1392W        W 8701  13.054   4.669   8.330
 1393W        W 8702  18.196   6.051   6.465
 1394W        W 8703  11.523   2.585   9.164
 1395W        W 8704   3.790   0.761   0.600
 1396W        W 8705  19.944   6.789   8.364
 1397W        W 8706  18.185   9.133   8.061
 1398W        W 8707  10.127   6.064   7.354
 1399W        W 8708  19.942   7.744   9.334
 1400W        W 8709   8.542   2.079   6.206
 1401W        W 8710   9.661   5.397   7.074
 1402W        W 8711   1.352   8.781   0.646
 1403W        W 8712  14.065   7.616   0.678
 1404W        W 8713   3.120   6.697   8.930
 1405W        W 8714  16.617   6.005   9.002
 1406W        W 8715  10.621   1.212   8.839
 1407W        W 8716  10.546   4.577   9.467
 1408W        W 8717   5.411   4.166   9.033
 1409W        W 8718   2.943   5.499   9.123
 1410W        W 8719   9.856   3.754   9.557
 1411W        W 8720  10.735   2.905   0.119
 1412W        W 8721  14.053   1.196   9.748
 1413W        W 8722   9.529   5.529   7.829
 1414W        W 8723   8.108   6.485   7.984
 1415W        W 8724  19.421   5.972   0.858
 1416W        W 8725   3.411   0.364   7.065
 1417W        W 8726   1.833   0.318   6.355
 1418W        W 8727  16.749   8.828   8.052
 1419W        W 8728  19.487   8.674   0.136
 1420W        W 8729   7.737   4.589   8.855
 1421W        W 8730   9.058   8.545   6.638
 1422W        W 8731  10.647   0.561   7.729
 1423W        W 8732   2.264   2.068   7.565
 1424W        W 8733  19.184   6.552   8.825
 1425W        W 8734  11.617   4.796   0.759
 1426W        W 8735  14.848   0.873   8.415
 1427W        W 8736  18.399   3.041   9.723
 1428W        W 8737  15.951   8.417   8.189
 1429W        W 8738   8.533   3.042   7.128
 1430W        W 8739  15.329   7.854   8.280
 1431W        W 8740  10.506   9.756   8.283
 1432W        W 8741  12.651   0.661   8.664
 1433W        W 8742   6.452   6.847   8.337
 1434W        W 8743   8.496   5.164   8.011
 1435W        W 8744  19.754   0.561   8.829
 1436W        W 8745   7.732   2.176   6.611
 1437W        W 8746  13.957   0.650   7.888
 1438W        W 8747   2.767   5.499   7.487
 1439W        W 8748  17.408   4.136   6.844
 1440W        W 8749  13.789   8.837   8.945
 1441W        W 8750  10.348   6.876   6.769
 1442W        W 8751   3.941   7.295   8.834
 1443W        W 8752  10.039   3.728   1.165
 1444W        W 8753  13.012   8.935   7.868
 1445W        W 8754  13.585   8.388   0.864
 1446W        W 8755  19.664   6.502   8.697
 1447W        W 8756  12.357   2.664   8.659
 1448W        W 8757  15.546   8.385   6.480
 1449W        W 8758  12.396   3.284   6.199
 1450W        W 8759   8.156   7.754   0.246
 1451W        W 8760   1.285   2.300   0.562
 1452W        W 8761   4.639   2.128   9.052
 1453W        W 8762   6.863   4.209   6.145
 1454W        W 8763   4.929   8.615   9.018
 1455W        W 8764  12.744   2.281   0.198
 1456W        W 8765   3.585   8.387   8.391
 1457W        W 8766  10.158   9.677   7.468
 1458W        W 8767   5.226   1.797   8.297
 1459W        W 8768   2.123   9.511   5.901
 1460W        W 8769   5.473   4.514   7.978
 1461W        W 8770  16.635   9.692   9.013
 1462W        W 8771   3.702   7.324   0.206
 1463W        W 8772  10.054   3.849   0.201
 1464W        W 8773  15.699   0.678   9.638
 1465W        W 8774  10.492   1.569   6.324
 1466W        W 8775   3.952   4.163   6.808
 1467W        W 8776  10.079   3.632   0.654
 1468W        W 8777  12.301   4.864   0.434
 1469W        W 8778  10.094   3.235   7.708
 1470W        W 8779  17.562   4.619   0.737
 1471W        W 8780   5.336   5.711   9.833
 1472W        W 8781   7.067   0.465   0.198
 1473W        W 8782  18.626   9.658   7.218
 1474W        W 8783   8.060   2.600   8.336
 1475W        W 8784  13.787   7.854   8.437
 1476W        W 8785  19.407   8.809   6.153
 1477W        W 8786   8.053   4.891   7.277
 1478W        W 8787   8.551   7.013   7.166
 1479W        W 8788   6.667   3.714   6.449
 1480W        W 8789   4.592   5.353   9.436
 1481W        W 8790  11.628   8.971   6.580
 1482W        W 8791  14.525   1.679   8.210
 1483W        W 8792  16.938   4.673   7.056
 1484W        W 8793  17.850   5.566   7.962
 1485W        W 8794   6.352   2.157   6.930
 1486W        W 8795   7.116   4.478   9.789
 1487W        W 8796   3.614   0.674   9.701
 1488W        W 8797  19.434   5.490   6.765
 1489W        W 8798  15.512   7.154   7.546
 1490W        W 8799   8.166   7.219   8.475
 1491W        W 8800  17.843   2.711   8.195
 1492W        W 8801   4.401   7.826   8.258
 1493W        W 8802   4.750   8.142   9.670
 1494W        W 8803  15.533   0.218   0.928
 1495W        W 8804  10.013   9.214   7.636
 1496W        W 8805   3.080   8.259   7.698
 1497W        W 8806   1.871   7.055   0.419
 1498W        W 8807  14.400   1.182   6.564
 1499W        W 8808   3.297   2.733   7.201
 1500W        W 8809  17.965   0.803   6.889
 1501W        W 8810  15.495   6.607   9.442
 1502W        W 8811  18.299   6.469   8.726
 1503W        W 8812  17.945   3.720   8.377
 1504W        W 8813   9.382   2.238   0.427
 1505W        W 8814   1.655   2.943   9.418
 1506W        W 8815   6.609   1.203   9.112
 1507W        W 8816   9.562   7.679   6.611
 1508W        W 8817  10.469   1.452   7.661
 1509W        W 8818  17.048   7.565   8.403
 1510W        W 8819   4.474   0.159   7.383
 1511W        W 8820  15.370   0.338   9.996
 1512W        W 8821   9.572   3.351   9.708
 1513W        W 8822  17.395   2.586   8.428
 1514W        W 8823   5.153   6.155   7.871
 1515W        W 8824  15.293   3.281   8.993
 1516W        W 8825   4.034   8.147   8.388
 1517W        W 8826   4.362   8.421   9.944
 1518W        W 8827  10.132   4.102   6.549
 1519W        W 8828   3.889   8.857   6.216
 1520W        W 8829  11.187   2.830   8.022
 1521W        W 8830   2.200   3.625   0.312
 1522W        W 8831  19.150   5.497   9.174
 1523W        W 8832  10.569   0.635   0.620
 1524W        W 8833  17.028   2.938   7.895
 1525W        W 8834   9.315   7.398   7.532
 1526W        W 8835  17.383   2.136   8.170
 1527W        W 8836  12.898   2.734   0.419
 1528W        W 8837   4.158   8.590   9.467
 1529W        W 8838  10.575   3.832   6.516
 1530W        W 8839  18.274   7.542   8.873
 1531W        W 8840  12.386   2.678   9.656
 1532W        W 8841   5.375   3.016   9.809
 1533W        W 8842   1.876   4.920   8.454
 1534W        W 8843   1.207   7.461   6.983
 1535W        W 8844   2.122   5.086   7.649
 1536W        W 8845   0.497   8.826   7.403
 1537W        W 8846  13.968   4.254   7.530
 1538W        W 8847   9.905   3.752   6.237
 1539W        W 8848  15.004   0.214   6.725
 1540W        W 8849   5.621   4.025   0.973
 1541W        W 8850  13.866   6.818   6.221
 1542W        W 8851  12.356   7.060   6.332
 1543W        W 8852   8.708   1.032   8.932
 1544W        W 8853   9.104   5.830   7.682
 1545W        W 8854   8.646   2.636   0.352
 1546W        W 8855   6.844   2.098   9.399
 1547W        W 8856   7.818   6.597   7.569
 1548W        W 8857  19.065   7.866   9.706
 1549W        W 8858   5.049   8.961   9.856
 1550W        W 8859   3.380   6.879   0.214
 1551W        W 8860  13.919   1.550   7.005
 1552W        W 8861   3.670   2.072   0.535
 1553W        W 8862   6.078   6.958   7.996
 1554W        W 8863  11.067   7.166   6.101
 1555W        W 8864  12.493   3.163   0.939
 1556W        W 8865  18.914   6.953   9.801
 1557W        W 8866  14.004   4.499   8.863
 1558W        W 8867  14.411   0.778   7.687
 1559W        W 8868   3.524   8.065   7.883
 1560W        W 8869   2.006   8.829   0.007
 1561W        W 8870  14.629   5.493   7.498
 1562W        W 8871   3.686   9.260   7.427
 1563W        W 8872   3.152   1.382   7.034
 1564W        W 8873  10.282   7.180   0.503
 1565W        W 8874   8.268   3.703   7.999
 1566W        W 8875  16.952   2.159   6.376
 1567W        W 8876  14.557   5.107   6.312
 1568W        W 8877  19.103   2.024   9.272
 1569W        W 8878  18.630   9.648   9.888
 1570W        W 8879   9.520   6.776   0.980
 1571W        W 8880   5.034   0.933   8.191
 1572W        W 8881  15.480   2.749   7.850
 1573W        W 8882   2.264   5.115   8.160
 1574W        W 8883  14.913   5.891   9.223
 1575W        W 8884  19.846   8.912   8.322
 1576W        W 8885   1.624   6.584   6.289
 1577W        W 8886   2.567   3.546   9.675
 1578W        W 8887  15.946   2.994   9.911
 1579W        W 8888   9.711   1.240   9.205
 1580W        W 8889  15.053   2.741   8.125
 1581W        W 8890   3.345   5.685   8.852
 1582W        W 8891  14.054   2.985   9.191
 1583W        W 8892   7.649   0.037   7.996
 1584W        W 8893  19.361   0.716   9.128
 1585W        W 8894   7.430   7.407   7.348
 1586W        W 8895   6.116   6.966   9.706
 1587W        W 8896   9.573   7.776   7.771
 1588W        W 8897  19.094   6.516   0.143
 1589W        W 8898   3.016   2.679   8.811
 1590W        W 8899  17.727   2.631   9.765
 1591W        W 8900  15.722   5.509   0.806
 1592W        W 8901  18.945   9.782   9.501
 1593W        W 8902   1.177   7.948   0.713
 1594W        W 8903  19.591   7.836   9.780
 1595W        W 8904  15.468   9.240   0.470
 1596W        W 8905   8.505   6.820   0.264
 1597W        W 8906   8.249   3.683   8.852
 1598W        W 8907   2.759   3.186   8.779
 1599W        W 8908   0.560   4.846   7.477
 1600W        W 8909  16.616   6.581   0.574
 1601W        W 8910   2.029   2.660   0.536
 1602W        W 8911   8.132   4.249   0.613
 1603W        W 8912  18.670   8.328   0.409
 1604W        W 8913   2.151   9.585   6.622
 1605W        W 8914  19.229   1.513   0.474
 1606W        W 8915   6.261   5.071   6.496
 1607W        W 8916  10.276   8.924   6.847
 1608W        W 8917  17.672   3.544   0.535
 1609W        W 8918   3.286   4.958   7.851
 1610W        W 8919   0.273   9.681   0.662
 1611W        W 8920   0.207   0.682   7.050
 1612W        W 8921  10.211   4.796   5.817
 1613W        W 8922   5.733   0.742   0.680
 1614W        W 8923   7.243   7.362   9.305
 1615W        W 8924  10.136   7.681   8.926
 1616W        W 8925  18.425   9.945   0.249
 1617W        W 8926  18.896   6.342   9.183
 1618W        W 8927  13.345   6.456   9.693
 1619W        W 8928   7.637   5.059   0.179
 1620W        W 8929  14.357   7.228   6.836
 1621W        W 8930  18.253   2.551   7.918
 1622W        W 8931  18.690   6.079   6.292
 1623W        W 8932   6.751   0.388   6.330
 1624W        W 8933  17.811   1.310   0.553
 1625W        W 8934   2.417   5.757   0.425
 1626W        W 8935  19.177   1.111   0.784
 1627W        W 8936   9.148   8.739   0.174
 1628W        W 8937   8.016   7.775   9.757
 1629W        W 8938   5.677   2.625   9.955
 1630W        W 8939  10.214   9.848   6.425
 1631W        W 8940   0.965   0.581   7.559
 1632W        W 8941  13.418   9.439   7.378
 1633W        W 8942  14.786   9.659   8.480
 1634W        W 8943  12.580   2.537   6.847
 1635W        W 8944  13.644   4.053   9.868
 1636W        W 8945  18.617   9.397   9.442
 1637W        W 8946  19.220   0.460   0.163
 1638W        W 8947   5.591   4.902   7.643
 1639W        W 8948  11.120   0.657   7.429
 1640W        W 8949   3.160   2.433   6.348
 1641W        W 8950   5.461   5.378   8.490
 1642W        W 8951  16.999   4.952   0.299
 1643W        W 8952  13.849   9.298   9.204
 1644W        W 8953  13.144   2.156   7.319
 1645W        W 8954   0.501   1.189   9.663
 1646W        W 8955  19.024   4.597   0.396
 1647W        W 8956  11.492   2.158   8.314
 1648W        W 8957   6.239   4.905   9.509
 1649W        W 8958  18.653   8.396   9.383
 1650W        W 8959   6.193   4.529   9.887
 1651W        W 8960  14.322   8.145   6.544
 1652W        W 8961  15.355   7.340   9.785
 1653W        W 8962   8.555   8.517   8.686
 1654W        W 8963   3.792   4.124   9.532
 1655W        W 8964   1.598   4.103   7.313
 1656W        W 8965  10.228   7.002   9.327
 1657W        W 8966   3.951   4.966   7.098
 1658W        W 8967   8.294   9.752   6.958
 1659W        W 8968   7.756   2.980   9.188
 1660W        W 8969   5.833   7.296   8.358
 1661W        W 8970   5.653   1.251   7.925
 1662W        W 8971  10.547   3.224   7.976
 1663W        W 8972  14.124   8.695   6.564
 1664W        W 8973  15.178   6.839   9.784
 1665W        W 8974  15.008   3.566   8.678
 1666W        W 8975  18.328   7.306   0.355
 1667W        W 8976  12.128   0.278   0.715
 1668W        W 8977  15.472   0.170   6.472
 1669W        W 8978  19.390   9.148   9.064
 1670W        W 8979   6.213   5.840   0.720
 1671W        W 8980  17.289   1.709   1.041
 1672W        W 8981   7.831   8.915   9.261
 1673W        W 8982   9.290   1.076   7.773
 1674W        W 8983  11.834   1.769   7.476
 1675W        W 8984   3.295   9.374   9.706
 1676W        W 8985  12.215   2.184   0.211
 1677W        W 8986  18.665   7.251   9.110
 1678W        W 8987   7.607   1.657   6.486
 1679W        W 8988  13.875   9.678   1.003
 1680W        W 8989  16.326   7.889   0.428
 1681W        W 8990   3.109   9.833   5.995
 1682W        W 8991  12.941   0.684   7.310
 1683W        W 8992   7.301   6.654   7.490
 1684W        W 8993  19.753   7.408   8.565
 1685W        W 8994   3.071   6.235   6.520
 1686W        W 8995   5.289   6.360   9.610
 1687W        W 8996   3.006   8.392   6.221
 1688W        W 8997  19.086   3.837   7.948
 1689W        W 8998   3.902   0.908   7.018
 1690W        W 8999   3.265   5.405   7.585
 1691W        W 9000  19.526   4.225   9.737
 1692W        W 9001   0.843   3.893   0.280
 1693W        W 9002   2.228   6.005   8.072
 1694W        W 9003  10.167   7.346   9.746
 1695W        W 9004   4.048   4.518   0.307
 1696W        W 9005  14.024   4.993   8.644
 1697W        W 9006  13.750   0.964   0.538
 1698W        W 9007  17.210   4.867   8.616
 1699W        W 9008  14.681   2.082   8.476
 1700W        W 9009  19.929   2.632   6.249
 1701W        W 9010  10.533   3.272   9.799
 1702W        W 9011  11.414   7.204   0.371
 1703W        W 9012  15.611   4.667   8.474
 1704W        W 9013   1.377   2.700   7.376
 1705W        W 9014  16.881   3.676   7.062
 1706W        W 9015  13.459   8.499   6.692
 1707W        W 9016   4.281   8.039   6.603
 1708W        W 9017  19.982   6.286   7.111
 1709W        W 9018  15.021   7.879   0.862
 1710W        W 9019  12.514   4.765   7.619
 1711W        W 9020  11.699   9.522   8.025
 1712W        W 9021  11.031   8.127   6.408
 1713W        W 9022  11.677   5.193   7.492
 1714W        W 9023  12.129   2.589   7.666
 1715W        W 9024   2.657   0.084   0.387
 1716W        W 9025  18.584   6.326   7.152
 1717W        W 9026   1.625   6.698   8.006
 1718W        W 9027  16.662   5.717   0.825
 1719W        W 9028   2.047   2.285   7.157
 1720W        W 9029  18.607   4.469   8.326
 1721W        W 9030   8.826   7.364   7.406
 1722W        W 9031   4.126   6.837   9.663
 1723W        W 9032  15.129   2.387   7.227
 1724W        W 9033  11.515   6.346   6.213
 1725W        W 9034   4.784   3.546   7.848
 1726W        W 9035  13.536   7.387   8.409
 1727W        W 9036  13.960   6.097   0.674
 1728W        W 9037   1.820   8.854   0.463
 1729W        W 9038   4.700   2.680   7.810
 1730W        W 9039   7.107   8.057   8.340
 1731W        W 9040  11.647   5.139   9.862
 1732W        W 9041  11.742   4.271   7.148
 1733W        W 9042   1.865   4.574   7.435
 1734W        W 9043   1.001   2.159   7.279
 1735W        W 9044  19.563   6.375   6.783
 1736W        W 9045   0.383   4.971   8.378
 1737W        W 9046   4.964   0.394   8.777
 1738W        W 9047  14.421   0.230   0.477
 1739W        W 9048   2.910   4.661   8.554
 1740W        W 9049   5.059   3.871   9.323
 1741W        W 9050  15.974   2.611   9.095
 1742W        W 9051   6.232   0.099   0.271
 1743W        W 9052  12.557   7.449   7.870
 1744W        W 9053  15.140   0.985   6.653
 1745W        W 9054  19.806   3.600   9.238
 1746W        W 9055   7.859   2.738   8.769
 1747W        W 9056  19.921   3.519   8.570
 1748W        W 9057  16.342   3.963   6.075
 1749W        W 9058  11.163   7.400   9.466
 1750W        W 9059   8.080   2.507   9.160
 1751W        W 9060   4.378   6.712   0.096
 1752W        W 9061  14.411   0.262   9.982
 1753W        W 9062  14.164   1.763   7.874
 1754W        W 9063   5.292   6.833   6.453
 1755W        W 9064   6.594   8.797   8.046
 1756W        W 9065   2.159   0.687   9.304
 1757W        W 9066   1.732   2.321   7.587
 1758W        W 9067  15.231   0.799   9.770
 1759W        W 9068  17.881   3.103   8.995
 1760W        W 9069   2.349   1.880   9.829
 1761W        W 9070   2.831   7.532   7.455
 1762W        W 9071   5.929   0.092   6.444
 1763W        W 9072   1.893   1.167   8.442
 1764W        W 9073   4.157   4.629   6.617
 1765W        W 9074  15.210   9.740   8.786
 1766W        W 9075   8.977   7.706   0.910
 1767W        W 9076   3.469   3.804   0.837
 1768W        W 9077   1.095   3.076   6.697
 1769W        W 9078   1.526   5.874   0.673
 1770W        W 9079   7.619   4.072   7.599
 1771W        W 9080   0.652   4.053   0.725
 1772W        W 9081  17.580   5.995   9.011
 1773W        W 9082   8.326   0.786   7.536
 1774W        W 9083   9.319   1.630   9.120
 1775W        W 9084  14.652   5.432   8.303
 1776W        W 9085  12.128   7.963   7.239
 1777W        W 9086   5.557   2.591   8.310
 1778W        W 9087   7.354   1.125   6.649
 1779W        W 9088  12.180   2.071   8.838
 1780W        W 9089  10.305   2.525   7.552
 1781W        W 9090  12.181   7.567   9.453
 1782W        W 9091  12.615   6.923   7.915
 1783W        W 9092  14.956   7.220   0.098
 1784W        W 9093  17.316   1.232   8.190
 1785W        W 9094   5.461   7.366   8.777
 1786W        W 9095  11.829   2.532   6.221
 1787W        W 9096  19.234   6.405   0.658
 1788W        W 9097  16.515   1.730   8.446
 1789W        W 9098   4.301   5.913   0.459
 1790W        W 9099   5.704   9.706   9.697
 1791W        W 9100   5.692   6.431   8.711
 1792W        W 9101   1.253   6.474   6.695
 1793W        W 9102  12.205   0.659   8.411
 1794W        W 9103   7.523   4.564   6.660
 1795W        W 9104   8.756   6.911   0.698
 1796W        W 9105   8.507   9.280   8.307
 1797W        W 9106  10.476   6.494   6.466
 1798W        W 9107  16.993   0.815   9.256
 1799W        W 9108   5.467   1.108   8.366
 1800W        W 9109  13.814   7.755   9.286
 1801W        W 9110  15.972   6.340   1.233
 1802W        W 9111  13.650   4.047   9.352
 1803W        W 9112   6.927   3.370   9.233
 1804W        W 9113  19.293   9.604   8.813
 1805W        W 9114   8.301   8.251   0.341
 1806W        W 9115   1.729   4.878   0.238
 1807W        W 9116   7.161   9.925   7.935
 1808W        W 9117   9.998   5.326   8.025
 1809W        W 9118  18.278   8.429   6.669
 1810W        W 9119  19.982   8.618   0.364
 1811W        W 9120  16.296   7.795   7.428
 1812W        W 9121   7.313   2.038   6.238
 1813W        W 9122   4.374   7.588   0.749
 1814W        W 9123  16.481   6.572   9.272
 1815W        W 9124   9.695   4.496   7.796
 1816W        W 9125   7.121   3.050   0.337
 1817W        W 9126  10.367   6.699   0.336
 1818W        W 9127  12.031   7.836   7.732
 1819W        W 9128  17.299   3.640   9.004
 1820W        W 9129   1.606   9.666   8.446
 1821W        W 9130  11.399   3.107   7.381
 1822W        W 9131  10.526   7.498   0.161
 1823W        W 9132   2.113   5.889   7.582
 1824W        W 9133  18.389   6.255   9.188
 1825W        W 9134  15.731   5.759   6.209
 1826W        W 9135   8.463   1.824   8.709
 1827W        W 9136  11.813   4.847   0.271
 1828W        W 9137   9.587   5.425   8.352
 1829W        W 9138   8.383   6.387   0.028
 1830W        W 9139  10.517   5.359   8.864
 1831W        W 9140   1.882   5.039   0.704
 1832W        W 9141   4.784   0.575   9.246
 1833W        W 9142   9.101   9.893   0.897
 1834W        W 9143   7.737   2.538   0.781
 1835W        W 9144   8.612   8.667   6.325
 1836W        W 9145   9.316   4.507   7.473
 1837W        W 9146   1.647   4.655   8.848
 1838W        W 9147  17.590   5.471   8.386
 1839W        W 9148  14.862   8.811   8.575
 1840W        W 9149  17.941   7.778   7.303
 1841W        W 9150  10.428   7.729   0.607
 1842W        W 9151  14.012   4.119   0.737
 1843W        W 9152   1.946   6.611   0.166
 1844W        W 9153   7.221   3.544   9.635
 1845W        W 9154  19.596   5.999   7.851
 1846W        W 9155   6.643   0.925   7.379
 1847W        W 9156  12.527   5.334   9.846
 1848W        W 9157   0.448   5.050   9.289
 1849W        W 9158  19.690   9.018   0.498
 1850W        W 9159  11.635   5.631   9.706
 1851W        W 9160   0.224   9.771   8.630
 1852W        W 9161  11.348   4.343   7.465
 1853W        W 9162  16.827   6.113   7.236
 1854W        W 9163   9.478   0.013   9.752
 1855W        W 9164  10.439   8.445   9.352
 1856W        W 9165  14.345   8.245   9.222
 1857W        W 9166   1.162   4.489   8.534
 1858W        W 9167   6.543   2.992   9.063
 1859W        W 9168   9.179   5.535   9.827
 1860W        W 9169  15.125   2.237   8.280
 1861W        W 9170  16.860   1.277   9.488
 1862W        W 9171  10.470   1.229   0.941
 1863W        W 9172   2.357   5.924   6.674
 1864W        W 9173   0.580   8.563   8.424
 1865W        W 9174   1.543   6.322   0.411
 1866W        W 9175   0.292   5.625   6.378
 1867W        W 9176   0.318   9.751   0.143
 1868W        W 9177   5.360   7.860   8.920
 1869W        W 9178   6.103   7.936   9.439
 1870W        W 9179  12.056   1.564   7.048
 1871W        W 9180   0.918   3.575   6.960
 1872W        W 9181   6.272   3.156   7.273
 1873W        W 9182   6.317   4.771   0.756
 1874W        W 9183   0.745   3.934   9.633
 1875W        W 9184   2.710   9.624   0.094
 1876W        W 9185  18.556   8.714   9.770
 1877W        W 9186   5.101   5.615   7.112
 1878W        W 9187   0.213   1.535   6.108
 1879W        W 9188   9.341   0.157   0.489
 1880W        W 9189   0.083   5.425   9.436
 1881W        W 9190  14.170   2.289   8.749
 1882W        W 9191   8.868   6.241   6.592
 1883W        W 9192  15.076   6.314   9.470
 1884W        W 9193   6.345   1.016   6.483
 1885W        W 9194  12.092   9.752   6.210
 1886W        W 9195   2.366   6.011   8.565
 1887W        W 9196  13.464   1.378   6.847
 1888W        W 9197   6.457   4.174   0.299
 1889W        W 9198   6.369   4.318   0.948
 1890W        W 9199  16.820   6.974   7.829
 1891W        W 9200   9.332   7.259   0.237
 1892W        W 9201   6.742   0.798   9.860
 1893W        W 9202  18.602   6.053   8.771
 1894W        W 9203   5.339   7.334   6.678
 1895W        W 9204   4.952   0.240   9.885
 1896W        W 9205  18.134   5.270   9.313
 1897W        W 9206   8.086   3.204   9.834
 1898W        W 9207   0.180   9.258   5.972
 1899W        W 9208  11.337   3.203   0.790
 1900W        W 9209   4.341   3.259   8.407
 1901W        W 9210   5.210   1.074   7.069
 1902W        W 9211   1.650   8.887   9.646
 1903W        W 9212  17.409   5.491   6.880
 1904W        W 9213   8.172   1.725   0.272
 1905W        W 9214   1.257   4.826   6.183
 1906W        W 9215  10.721   9.928   8.986
 1907W        W 9216  13.585   6.075   8.804
 1908W        W 9217   0.114   9.396   9.374
 1909W        W 9218  19.339   9.800   6.206
 1910W        W 9219  18.106   9.461   9.328
 1911W        W 9220   9.713   9.683   7.175
 1912W        W 9221  19.721   8.222   0.107
 1913W        W 9222   1.273   0.618   9.443
 1914W        W 9223  15.867   4.824   8.021
 1915W        W 9224  16.090   9.962   0.695
 1916W        W 9225  11.831   1.440   9.369
 1917W        W 9226  19.852   5.577   6.123
 1918W        W 9227   7.867   5.487   6.649
 1919W        W 9228  10.914   7.007   8.804
 1920W        W 9229   1.359   1.640   0.285
 1921W        W 9230   1.367   8.175   8.030
 1922W        W 9231  15.388   6.050   9.110
 1923W        W 9232  14.598   7.978   8.868
 1924W        W 9233   5.635   0.803   0.160
 1925W        W 9234  14.073   5.083   7.078
 1926W        W 9235  18.890   0.141   7.201
 1927W        W 9236  10.590   7.991   7.536
 1928W        W 9237  14.852   3.181   7.879
 1929W        W 9238  19.153   6.271   6.156
 1930W        W 9239  16.825   3.876   0.928
 1931W        W 9240  16.335   9.453   6.103
 1932W        W 9241   8.020   7.905   7.332
 1933W        W 9242  11.396   5.122   0.411
 1934W        W 9243  14.314   1.266   7.921
 1935W        W 9244   4.625   9.731   8.176
 1936W        W 9245   0.745   9.220   7.195
 1937W        W 9246  19.854   1.789   0.501
 1938W        W 9247  10.086   5.406   8.525
 1939W        W 9248  19.429   9.936   0.179
 1940W        W 9249  15.032   2.073   9.290
 1941W        W 9250  12.590   3.791   6.312
 1942W        W 9251  13.846   8.831   7.860
 1943W        W 9252   7.703   3.657   9.856
 1944W        W 9253  14.864   0.616   7.515
 1945W        W 9254   6.380   1.716   6.469
 1946W        W 9255   5.691   6.112   7.065
 1947W        W 9256   1.789   1.611   8.212
 1948W        W 9257  19.119   5.649   9.709
 1949W        W 9258  12.095   7.544   8.526
 1950W        W 9259  14.924   9.760   6.943
 1951W        W 9260  17.717   9.560   8.251
 1952W        W 9261  18.164   7.105   9.136
 1953W        W 9262  12.136   5.658   0.484
 1954W        W 9263  17.543   7.764   9.994
 1955W        W 9264  11.986   5.823   9.376
 1956W        W 9265  19.701   0.349   6.822
 1957W        W 9266  13.321   0.403   6.353
 1958W        W 9267   4.125   3.155   9.327
 1959W        W 9268  10.642   3.634   7.698
 1960W        W 9269   1.554   9.011   7.684
 1961W        W 9270  11.812   1.601   0.926
 1962W        W 9271   8.948   4.388   7.138
 1963W        W 9272   9.129   8.767   9.330
 1964W        W 9273  17.237   8.205   9.557
 1965W        W 9274   0.534   2.484   0.596
 1966W        W 9275   3.540   0.705   1.069
 1967W        W 9276  19.766   7.029   0.826
 1968W        W 9277   2.813   0.528   0.596
 1969W        W 9278  13.992   0.689   8.988
 1970W        W 9279  16.588   8.859   7.207
 1971W        W 9280  16.413   3.975   9.179
 1972W        W 9281  17.023   2.904   1.335
 1973W        W 9282   6.992   3.884   9.956
 1974W        W 9283   3.171   7.271   9.297
 1975W        W 9284  19.629   5.649   9.690
 1976W        W 9285  19.778   5.626   8.142
 1977W        W 9286  17.749   8.265   7.327
 1978W        W 9287   1.565   2.110   0.174
 1979W        W 9288  18.397   3.778   6.928
 1980W        W 9289   9.755   3.645   7.709
 1981W        W 9290   3.123   9.767   7.933
 1982W        W 9291  12.517   3.370   6.691
 1983W        W 9292   8.514   4.148   7.987
 1984W        W 9293  17.053   5.392   0.783
 1985W        W 9294   0.339   2.439   6.516
 1986W        W 9295   4.876   7.385   6.887
 1987W        W 9296   9.729   6.292   8.716
 1988W        W 9297  17.962   3.043   9.994
 1989W        W 9298  19.054   1.283   6.335
 1990W        W 9299  17.290   5.890   6.536
 1991W        W 9300  14.042   8.304   8.313
 1992W        W 9301   4.915   7.847   8.140
 1993W        W 9302  17.398   3.907   9.447
 1994W        W 9303  12.160   1.131   8.645
 1995W        W 9304  18.769   7.494   8.682
 1996W        W 9305  10.402   2.760   9.770
 1997W        W 9306  16.127   9.382   8.341
 1998W        W 9307   8.439   7.897   6.569
 1999W        W 9308  13.930   4.470   9.874
 2000W        W 9309   4.776   7.121   8.613
 2001W        W 9310   4.483   1.712   6.063
 2002W        W 9311  19.926   4.101   9.391
 2003W        W 9312   2.702   8.220   9.258
 2004W        W 9313   5.428   6.551   0.060
 2005W        W 9314  17.167   5.233   6.017
 2006W        W 9315   7.382   7.479   7.850
 2007W        W 9316  18.123   9.684   9.887
 2008W        W 9317   0.113   7.189   7.078
 2009W        W 9318  18.653   3.975   6.012
 2010W        W 9319   3.203   8.992   8.892
 2011W        W 9320   8.770   5.375   7.122
 2012W        W 9321  13.783   0.151   6.264
 2013W        W 9322  15.779   6.378   0.357
 2014W        W 9323   3.780   2.812   7.362
 2015W        W 9324   1.551   1.643   1.189
 2016W        W 9325   8.337   5.664   7.048
 2017W        W 9326   7.780   2.775   7.934
 2018W        W 9327  13.335   0.560   9.763
 2019W        W 9328  14.338   8.463   7.328
 2020W        W 9329   6.621   4.961   7.335
 2021W        W 9330   1.912   6.163   6.531
 2022W        W 9331   8.183   3.703   9.689
 2023W        W 9332   7.804   6.106   7.708
 2024W        W 9333  19.975   5.635   8.763
 2025W        W 9334  18.284   7.933   6.489
 2026W        W 9335  19.752   3.236   7.922
 2027W        W 9336  13.052   3.632   0.389
 2028W        W 9337  12.644   0.218   0.574
 2029W        W 9338  12.907   9.405   6.548
 2030W        W 9339  12.450   5.812   9.631
 2031W        W 9340  13.914   4.767   0.772
 2032W        W 9341  13.530   0.131   8.436
 2033W        W 9342  19.447   4.645   8.001
 2034W        W 9343  13.058   1.636   7.064
 2035W        W 9344   2.316   6.903   9.333
 2036W        W 9345  18.572   0.298   9.159
 2037W        W 9346  15.832   8.159   8.617
 2038W        W 9347  15.569   3.591   6.364
 2039W        W 9348   0.597   7.570   0.641
 2040W        W 9349   4.643   8.440   0.419
 2041W        W 9350  16.864   1.222   0.515
 2042W        W 9351   4.208   0.840   0.934
 2043W        W 9352   5.738   8.770   6.123
 2044W        W 9353  14.498   7.021   7.838
 2045W        W 9354  18.839   0.766   8.440
 2046W        W 9355   0.692   8.004   0.900
 2047W        W 9356  13.305   3.625   6.060
 2048W        W 9357   0.834   6.851   8.498
 2049W        W 9358  12.416   9.794   9.055
 2050W        W 9359   6.680   4.933   6.838
 2051W        W 9360  16.980   2.968   8.925
 2052W        W 9361   9.962   6.418   8.273
 2053W        W 9362  19.911   4.104   0.061
 2054W        W 9363  19.677   4.183   7.080
 2055W        W 9364   2.824   2.066   0.556
 2056W        W 9365   8.368   6.080   6.732
 2057W        W 9366  11.466   9.479   6.624
 2058W        W 9367  16.090   8.667   7.226
 2059W        W 9368  10.438   5.265   5.868
 2060W        W 9369   9.164   1.561   7.926
 2061W        W 9370  17.635   3.478   9.961
 2062W        W 9371   3.674   0.224   9.431
 2063W        W 9372   8.739   5.732   6.512
 2064W        W 9373  13.584   8.954   7.410
 2065W        W 9374   1.082   3.966   8.716
 2066W        W 9375  14.371   4.699   0.524
 2067W        W 9376  11.133   2.124   8.668
 2068W        W 9377   3.139   9.345   0.191
 2069W        W 9378   5.415   1.133   0.485
 2070W        W 9379   4.738   5.861   0.187
 2071W        W 9380  14.042   4.100   8.529
 2072W        W 9381  14.609   3.670   7.332
 2073W        W 9382  12.107   0.958   9.480
 2074W        W 9383   6.501   5.174   9.160
 2075W        W 9384   7.266   2.177   9.124
 2076W        W 9385   0.541   5.084   6.462
 2077W        W 9386   1.605   0.456   7.779
 2078W        W 9387  16.980   2.479   7.615
 2079W        W 9388  14.373   0.786   8.184
 2080W        W 9389   1.327   0.321   7.326
 2081W        W 9390  17.493   9.728   6.596
 2082W        W 9391   7.784   0.756   8.604
 2083W        W 9392   0.623   8.938   9.638
 2084W        W 9393   9.899   8.375   9.307
 2085W        W 9394  13.642   4.912   8.268
 2086W        W 9395  13.453   1.611   9.794
 2087W        W 9396   6.629   6.384   8.161
 2088W        W 9397   0.636   8.711   7.925
 2089W        W 9398   4.180   1.300   0.078
 2090W        W 9399   4.931   4.930   9.468
 2091W        W 9400   4.905   5.999   9.711
 2092W        W 9401   0.386   8.480   0.694
 2093W        W 9402  12.369   6.550   9.555
 2094W        W 9403  17.587   8.287   8.547
 2095W        W 9404   4.714   3.024   6.629
 2096W        W 9405   3.480   5.881   7.341
 2097W        W 9406   8.198   3.455   0.688
 2098W        W 9407   8.544   1.327   8.553
 2099W        W 9408  16.746   5.116   6.850
 2100W        W 9409   1.033   2.554   0.168
 2101W        W 9410   0.413   5.526   9.059
 2102W        W 9411   8.921   3.122   6.571
 2103W        W 9412   3.754   5.522   0.707
 2104W        W 9413  19.462   6.476   9.248
 2105W        W 9414  18.739   1.365   0.517
 2106W        W 9415   9.016   7.103   8.694
 2107W        W 9416  11.067   3.285   9.916
 2108W        W 9417  16.523   3.165   0.203
 2109W        W 9418  11.661   4.620   9.842
 2110W        W 9419  15.229   3.319   9.703
 2111W        W 9420  16.927   8.669   0.908
 2112W        W 9421  11.749   8.212   8.986
 2113W        W 9422   9.293   9.695   6.864
 2114W        W 9423  19.218   8.212   7.325
 2115W        W 9424   3.646   7.053   7.864
 2116W        W 9425   1.653   8.433   6.196
 2117W        W 9426  16.253   1.711   8.921
 2118W        W 9427  16.244   2.583   9.852
 2119W        W 9428  19.074   3.932   0.864
 2120W        W 9429  11.338   1.066   7.654
 2121W        W 9430   5.880   7.443   0.038
 2122W        W 9431  19.368   1.361   7.803
 2123W        W 9432  19.520   4.428   0.239
 2124W        W 9433   8.379   4.760   6.088
 2125W        W 9434  10.993   1.586   0.288
 2126W        W 9435   6.247   1.598   8.458
 2127W        W 9436  15.356   4.659   8.928
 2128W        W 9437   8.400   6.818   8.754
 2129W        W 9438  11.942   3.003   7.293
 2130W        W 9439   7.018   6.034   9.183
 2131W        W 9440   3.261   5.879   8.333
 2132W        W 9441   9.958   3.441   7.247
 2133W        W 9442  12.369   4.248   6.351
 2134W        W 9443  15.876   5.949   0.602
 2135W        W 9444  11.456   9.314   0.469
 2136W        W 9445  15.841   9.116   0.090
 2137W        W 9446  19.627   3.413   6.863
 2138W        W 9447   0.123   7.313   0.307
 2139W        W 9448   8.563   9.322   7.025
 2140W        W 9449   4.109   1.502   6.365
 2141W        W 9450   3.944   5.042   9.593
 2142W        W 9451  19.195   1.593   1.037
 2143W        W 9452   7.778   3.102   7.531
 2144W        W 9453   9.573   5.006   7.995
 2145W        W 9454  15.551   1.705   8.181
 2146W        W 9455   3.521   6.368   0.259
 2147W        W 9456   4.267   9.101   8.130
 2148W        W 9457  10.080   9.777   9.278
 2149W        W 9458  12.886   2.793   0.939
 2150W        W 9459  10.951   6.624   9.188
 2151W        W 9460   6.996   4.954   7.722
 2152W        W 9461   1.064   1.721   9.437
 2153W        W 9462   3.699   9.706   9.703
 2154W        W 9463  10.993   3.559   6.315
 2155W        W 9464   4.565   7.078   5.999
 2156W        W 9465  19.471   7.474   8.054
 2157W        W 9466   1.817   3.920   6.840
 2158W        W 9467  19.204   4.100   7.538
 2159W        W 9468   9.925   7.704   8.137
 2160W        W 9469  18.185   1.212   8.174
 2161W        W 9470  19.827   9.035   0.000
 2162W        W 9471  12.934   5.469   6.555
 2163W        W 9472   4.691   3.447   6.942
 2164W        W 9473  13.520   4.473   9.090
 2165W        W 9474  16.840   9.170   9.564
 2166W        W 9475   6.210   3.242   0.752
 2167W        W 9476  10.379   7.535   7.418
 2168W        W 9477  19.366   1.934   0.698
 2169W        W 9478  18.726   2.627   9.741
 2170W        W 9479   6.747   5.009   0.618
 2171W        W 9480  12.420   9.336   6.290
 2172W        W 9481   1.678   0.845   8.120
 2173W        W 9482   5.864   2.348   6.301
 2174W        W 9483   0.435   4.122   9.210
 2175W        W 9484   9.957   6.696   7.138
 2176W        W 9485  17.033   0.833   0.273
 2177W        W 9486   6.522   0.062   9.832
 2178W        W 9487   5.287   0.613   7.314
 2179W        W 9488   4.347   4.441   0.734
 2180W        W 9489  19.403   9.609   9.744
 2181W        W 9490  14.376   4.003   8.137
 2182W        W 9491  10.025   4.491   8.588
 2183W        W 9492  16.335   3.727   0.938
 2184W        W 9493   3.002   9.307   6.228
 2185W        W 9494   0.229   4.579   9.474
 2186W        W 9495  14.811   1.548   6.642
 2187W        W 9496  13.419   6.330   0.562
 2188W        W 9497  15.129   1.877   6.384
 2189W        W 9498   3.102   9.270   0.720
 2190W        W 9499   0.189   2.008   8.873
 2191W        W 9500  14.003   0.193   7.640
 2192W        W 9501   5.949   2.314   8.158
 2193W        W 9502   7.353   2.654   8.869
 2194W        W 9503  18.602   4.445   0.153
 2195W        W 9504  17.852   3.894   9.679
 2196W        W 9505  15.301   9.636   7.259
 2197W        W 9506  12.105   3.638   6.456
 2198W        W 9507   6.398   7.362   8.210
 2199W        W 9508   1.028   4.893   7.745
 2200W        W 9509   1.812   2.201   0.634
 2201W        W 9510  17.586   6.073   8.016
 2202W        W 9511  17.241   7.088   6.478
 2203W        W 9512   7.253   2.232   8.559
 2204W        W 9513   4.719   6.854   8.145
 2205W        W 9514   7.533   2.324   7.942
 2206W        W 9515   5.255   3.620   8.048
 2207W        W 9516   0.749   2.663   9.189
 2208W        W 9517   4.905   8.279   7.831
 2209W        W 9518  16.718   6.367   9.670
 2210W        W 9519   1.951   9.286   9.733
 2211W        W 9520  10.721   8.934   7.116
 2212W        W 9521   7.129   8.155   0.225
 2213W        W 9522  15.371   3.219   7.117
 2214W        W 9523   7.896   9.676   8.378
 2215W        W 9524   7.877   5.365   9.305
 2216W        W 9525  13.972   3.697   6.037
 2217W        W 9526  12.698   0.224   7.853
 2218W        W 9527   0.341   0.709   9.526
 2219W        W 9528  14.374   9.852   8.184
 2220W        W 9529   8.358   6.874   9.767
 2221W        W 9530  18.239   4.123   8.550
 2222W        W 9531  18.703   1.718   9.201
 2223W        W 9532   5.042   9.408   9.580
 2224W        W 9533   1.787   5.475   7.536
 2225W        W 9534  14.056   1.136   7.494
 2226W        W 9535   9.295   0.450   0.016
 2227W        W 9536   2.533   2.166   7.988
 2228W        W 9537   1.697   8.918   8.800
 2229W        W 9538   4.034   6.304   8.470
 2230W        W 9539   5.651   9.879   0.175
 2231W        W 9540   0.521   4.569   0.494
 2232W        W 9541   1.739   2.964   7.837
 2233W        W 9542  13.052   0.127   9.807
 2234W        W 9543   8.308   8.795   8.341
 2235W        W 9544  16.423   6.300   6.907
 2236W        W 9545   2.269   3.213   9.909
 2237W        W 9546   8.361   5.982   8.295
 2238W        W 9547  10.216   7.957   7.165
 2239W        W 9548  13.507   7.887   8.871
 2240W        W 9549  11.092   9.359   0.796
 2241W        W 9550   6.459   2.515   8.869
 2242W        W 9551   4.832   1.595   9.674
 2243W        W 9552  19.374   9.132   0.888
 2244W        W 9553  19.857   5.461   7.631
 2245W        W 9554   1.489   4.075   9.220
 2246W        W 9555   1.395   1.239   8.342
 2247W        W 9556   6.718   3.354   9.709
 2248W        W 9557   9.550   9.724   0.195
 2249W        W 9558  10.674   9.353   5.922
 2250W        W 9559  15.120   0.710   9.269
 2251W        W 9560   3.510   1.877   9.077
 2252W        W 9561   3.306   8.904   6.448
 2253W        W 9562  14.807   2.580   8.535
 2254W        W 9563  10.671   8.207   0.681
 2255W        W 9564  18.613   7.341   6.927
 2256W        W 9565   4.652   6.326   7.989
 2257W        W 9566   6.837   5.139   9.558
 2258W        W 9567   8.664   3.922   0.100
 2259W        W 9568   4.586   3.027   0.320
 2260W        W 9569   7.361   5.263   9.380
 2261W        W 9570   4.758   9.858   6.611
 2262W        W 9571   4.690   7.377   8.161
 2263W        W 9572   7.994   9.167   6.400
 2264W        W 9573  10.936   1.305   0.716
 2265W        W 9574   8.785   3.992   8.438
 2266W        W 9575  13.663   6.928   9.695
 2267W        W 9576  13.042   6.396   0.183
 2268W        W 9577   6.138   9.684   9.968
 2269W        W 9578  19.405   7.816   0.249
 2270W        W 9579  11.131   6.820   6.879
 2271W        W 9580   9.515   0.930   9.850
 2272W        W 9581   5.159   3.726   6.562
 2273W        W 9582   9.517   7.272   7.981
 2274W        W 9583  10.741   5.032   8.535
 2275W        W 9584  17.787   4.566   6.052
 2276W        W 9585   8.313   8.299   7.803
 2277W        W 9586   5.350   7.815   8.426
 2278W        W 9587   7.241   0.797   8.475
 2279W        W 9588  13.638   4.895   7.383
 2280W        W 9589   1.786   4.562   0.867
 2281W        W 9590  14.029   8.335   6.936
 2282W        W 9591  11.612   5.936   6.550
 2283W        W 9592  16.744   4.833   8.853
 2284W        W 9593   7.738   0.129   9.031
 2285W        W 9594   4.053   8.599   6.759
 2286W        W 9595   4.847   0.151   7.940
 2287W        W 9596   7.176   9.440   0.782
 2288W        W 9597   4.153   2.343   6.708
 2289W        W 9598   6.551   0.201   0.677
 2290W        W 9599   2.278   3.749   7.493
 2291W        W 9600  13.533   9.880   7.627
 2292W        W 9601  17.354   3.918   0.335
 2293W        W 9602  11.145   8.487   0.782
 2294W        W 9603  17.678   7.246   5.663
 2295W        W 9604  18.798   9.471   6.525
 2296W        W 9605   9.894   7.415   9.308
 2297W        W 9606   2.766   9.088   8.349
 2298W        W 9607  17.046   5.070   9.804
 2299W        W 9608   1.047   2.035   0.190
 2300W        W 9609  15.752   0.668   0.823
 2301W        W 9610  11.716   8.369   0.706
 2302W        W 9611   2.428   6.200   0.694
 2303W        W 9612  18.103   7.453   6.321
 2304W        W 9613   2.776   5.038   6.446
 2305W        W 9614   0.138   8.776   8.716
 2306W        W 9615   5.182   2.847   6.478
 2307W        W 9616  11.706   8.643   9.255
 2308W        W 9617   4.531   1.235   1.013
 2309W        W 9618  17.659   6.991   7.817
 2310W        W 9619  12.681   7.558   9.311
 2311W        W 9620   1.990   6.464   9.300
 2312W        W 9621  18.261   8.049   9.333
 2313W        W 9622  12.490   9.312   7.843
 2314W        W 9623   9.954   0.309   8.305
 2315W        W 9624  19.660   7.384   0.075
 2316W        W 9625   9.068   1.224   7.315
 2317W        W 9626  16.995   5.940   9.831
 2318W        W 9627   2.565   8.375   6.494
 2319W        W 9628  17.873   8.683   8.742
 2320W        W 9629   5.581   4.006   9.482
 2321W        W 9630  12.319   4.333   7.806
 2322W        W 9631  10.892   4.817   7.136
 2323W        W 9632  15.131   4.210   0.919
 2324W        W 9633  17.554   3.778   7.997
 2325W        W 9634   7.131   6.378   8.365
 2326W        W 9635  16.344   5.178   8.668
 2327W        W 9636  13.809   3.285   7.909
 2328W        W 9637  11.571   0.830   7.195
 2329W        W 9638  14.996   8.194   9.915
 2330W        W 9639   9.218   1.132   9.060
 2331W        W 9640  11.497   0.800   6.692
 2332W        W 9641   5.217   4.207   6.720
 2333W        W 9642   9.690   6.782   8.516
 2334W        W 9643  15.727   9.065   6.955
 2335W        W 9644   1.059   2.915   8.875
 2336W        W 9645   2.386   7.472   8.875
 2337W        W 9646   9.808   2.379   7.364
 2338W        W 9647  12.458   9.341   7.334
 2339W        W 9648   0.772   4.640   8.221
 2340W        W 9649   4.808   0.499   0.376
 2341W        W 9650  11.017   2.523   0.317
 2342W        W 9651   2.489   1.786   6.483
 2343W        W 9652  18.126   3.501   9.216
 2344W        W 9653   6.414   7.431   8.729
 2345W        W 9654   0.278   1.613   6.600
 2346W        W 9655   1.005   1.592   9.920
 2347W        W 9656   8.552   2.537   8.391
 2348W        W 9657  10.555   5.350   7.899
 2349W        W 9658  17.519   0.170   6.247
 2350W        W 9659  17.417   5.097   0.587
 2351W        W 9660  12.165   5.130   6.293
 2352W        W 9661   5.664   7.769   9.668
 2353W        W 9662  14.995   3.559   0.199
 2354W        W 9663   1.561   7.120   8.892
 2355W        W 9664   0.278   2.031   7.880
 2356W        W 9665   8.351   9.603   0.203
 2357W        W 9666   2.701   9.604   9.157
 2358W        W 9667  17.428   4.099   6.351
 2359W        W 9668  10.350   0.904   9.153
 2360W        W 9669  11.994   3.076   6.472
 2361W        W 9670  15.230   9.736   6.542
 2362W        W 9671   3.944   1.064   9.628
 2363W        W 9672  11.623   5.993   7.081
 2364W        W 9673  11.966   8.430   0.223
 2365W        W 9674   4.507   1.525   7.862
 2366W        W 9675  12.116   7.009   7.733
 2367W        W 9676  18.967   0.415   7.633
 2368W        W 9677   1.050   7.571   0.363
 2369W        W 9678   2.477   8.693   9.226
 2370W        W 9679  11.239   1.266   7.183
 2371W        W 9680  18.232   2.115   7.655
 2372W        W 9681   2.797   3.300   7.542
 2373W        W 9682   1.659   0.731   9.128
 2374W        W 9683  14.463   8.458   0.384
 2375W        W 9684   2.178   4.284   6.688
 2376W        W 9685   7.399   0.183   7.009
 2377W        W 9686   7.612   2.510   7.051
 2378W        W 9687  19.697   1.705   7.250
 2379W        W 9688  17.425   2.584   7.897
 2380W        W 9689   4.711   4.727   7.466
 2381W        W 9690  18.683   3.938   8.265
 2382W        W 9691  19.131   1.786   7.977
 2383W        W 9692   4.562   9.164   1.080
 2384W        W 9693  19.450   5.452   7.287
 2385W        W 9694  12.538   7.780   9.774
 2386W        W 9695  12.884   3.168   9.624
 2387W        W 9696  13.572   3.925   7.724
 2388W        W 9697   3.670   2.293   6.502
 2389W        W 9698   4.381   5.466   8.947
 2390W        W 9699   9.655   9.353   6.358
 2391W        W 9700   2.851   3.174   6.612
 2392W        W 9701  17.801   1.781   8.708
 2393W        W 9702  13.162   4.087   0.627
 2394W        W 9703  17.116   7.873   7.797
 2395W        W 9704  18.106   3.122   7.259
 2396W        W 9705  12.855   5.076   7.841
 2397W        W 9706  13.087   7.430   8.099
 2398W        W 9707   1.324   6.966   8.327
 2399W        W 9708   7.727   5.586   8.868
 2400W        W 9709  11.059   0.150   9.315
 2401W        W 9710   3.988   0.599   8.725
 2402W        W 9711   6.141   6.130   6.808
 2403W        W 9712   9.938   4.988   0.714
 2404W        W 9713  18.487   8.902   7.337
 2405W        W 9714  18.292   3.480   8.727
 2406W        W 9715   4.407   4.997   6.292
 2407W        W 9716   5.854   5.143   6.190
 2408W        W 9717  10.514   4.582   0.452
 2409W        W 9718   2.959   9.398   8.731
 2410W        W 9719  18.665   1.001   0.857
 2411W        W 9720  13.739   4.013   6.381
 2412W        W 9721   0.602   9.442   8.481
 2413W        W 9722  12.269   7.302   0.671
 2414W        W 9723  13.397   9.362   6.355
 2415W        W 9724   0.330   9.791   9.635
 2416W        W 9725  15.197   6.542   9.032
 2417W        W 9726   7.386   0.245   9.383
 2418W        W 9727   8.563   5.252   6.206
 2419W        W 9728   7.566   3.892   0.708
 2420W        W 9729  18.066   8.177   7.713
 2421W        W 9730  11.621   0.956   8.068
 2422W        W 9731  16.977   4.590   8.211
 2423W        W 9732   3.069   3.197   0.338
 2424W        W 9733  14.315   9.713   0.735
 2425W        W 9734  18.300   1.648   9.485
 2426W        W 9735  16.218   1.502   6.978
 2427W        W 9736   3.508   4.957   7.379
 2428W        W 9737  15.260   6.340   0.445
 2429W        W 9738   4.967   0.101   0.747
 2430W        W 9739  13.496   3.611   9.091
 2431W        W 9740  19.154   3.329   7.048
 2432W        W 9741  18.414   9.888   9.480
 2433W        W 9742  11.125   7.262   9.957
 2434W        W 9743  15.274   5.557   9.972
 2435W        W 9744  15.835   5.523   7.042
 2436W        W 9745   3.825   8.814   7.676
 2437W        W 9746   8.939   7.928   8.317
 2438W        W 9747   4.561   8.350   9.250
 2439W        W 9748   2.663   3.731   8.279
 2440W        W 9749  11.154   5.979   6.310
 2441W        W 9750   3.939   4.264   6.304
 2442W        W 9751   3.327   6.835   7.515
 2443W        W 9752  18.302   4.196   8.046
 2444W        W 9753  11.308   2.563   6.236
 2445W        W 9754   1.265   2.625   9.303
 2446W        W 9755  14.108   5.102   9.564
 2447W        W 9756   8.641   0.605   6.656
 2448W        W 9757  11.920   1.874   8.373
 2449W        W 9758  18.821   8.284   9.888
 2450W        W 9759  17.400   3.714   7.131
 2451W        W 9760  16.785   2.954   7.443
 2452W        W 9761   9.597   8.627   8.100
 2453W        W 9762   2.548   1.727   8.714
 2454W        W 9763   9.584   9.964   8.860
 2455W        W 9764   6.469   0.538   8.917
 2456W        W 9765   8.246   0.789   7.002
 2457W        W 9766  17.786   2.197   9.486
 2458W        W 9767  17.312   1.243   8.709
 2459W        W 9768   0.759   2.057   9.765
 2460W        W 9769  14.091   6.381   5.869
 2461W        W 9770   0.429   7.252   9.834
 2462W        W 9771  16.267   4.859   9.531
 2463W        W 9772  12.271   0.191   7.591
 2464W        W 9773  13.795   0.597   0.909
 2465W        W 9774   1.245   5.727   6.676
 2466W        W 9775  10.075   7.861   7.666
 2467W        W 9776   3.248   2.845   6.706
 2468W        W 9777  16.845   5.533   8.030
 2469W        W 9778  17.891   8.981   9.408
 2470W        W 9779   4.181   2.043   7.267
 2471W        W 9780   6.265   3.619   7.870
 2472W        W 9781   3.395   0.209   6.407
 2473W        W 9782  12.051   2.182   6.564
 2474W        W 9783   1.591   2.632   0.799
 2475W        W 9784  17.254   5.741   6.043
 2476W        W 9785  18.245   1.645   8.958
 2477W        W 9786   6.306   7.571   0.301
 2478W        W 9787  12.597   9.776   7.598
 2479W        W 9788   1.977   8.639   7.541
 2480W        W 9789  11.875   7.893   0.894
 2481W        W 9790   4.542   5.415   0.351
 2482W        W 9791  12.872   1.420   7.549
 2483W        W 9792  12.509   0.650   7.594
 2484W        W 9793  19.929   4.766   8.201
 2485W        W 9794   6.954   0.864   8.896
 2486W        W 9795  11.155   9.200   8.585
 2487W        W 9796   0.058   2.014   8.367
 2488W        W 9797  15.111   2.347   7.784
 2489W        W 9798   5.085   3.320   9.398
 2490W        W 9799  12.289   4.061   0.588
 2491W        W 9800  18.996   0.666   0.590
 2492W        W 9801   4.980   1.853   7.861
 2493W        W 9802  12.715   4.076   0.896
 2494W        W 9803   4.888   9.081   6.053
 2495W        W 9804  14.534   8.350   8.496
 2496W        W 9805  16.333   4.005   7.139
 2497W        W 9806  11.112   9.852   0.202
 2498W        W 9807   8.051   3.072   0.360
 2499W        W 9808  13.901   4.177   8.033
 2500W        W 9809   1.277   2.129   7.707
 2501W        W 9810   0.482   5.844   9.785
 2502W        W 9811  16.496   1.313   7.618
 2503W        W 9812  17.065   3.830   6.597
 2504W        W 9813  15.004   9.023   0.358
 2505W        W 9814   3.717   7.936   9.545
 2506W        W 9815   5.017   9.321   6.929
 2507W        W 9816   5.217   0.656   0.662
 2508W        W 9817  12.024   6.561   7.478
 2509W        W 9818   4.186   0.435   8.262
 2510W        W 9819   7.861   2.284   9.907
 2511W        W 9820  11.281   8.399   8.978
 2512W        W 9821   0.371   0.287   7.406
 2513W        W 9822  17.439   8.859   8.499
 2514W        W 9823  10.581   1.771   8.070
 2515W        W 9824  10.544   0.754   6.736
 2516W        W 9825  13.232   3.147   8.808
 2517W        W 9826   7.611   4.929   6.999
 2518W        W 9827   4.111   3.585   9.055
 2519W        W 9828  16.719   7.116   6.300
 2520W        W 9829   5.045   7.138   7.863
 2521W        W 9830   7.112   6.168   6.874
 2522W        W 9831   4.071   1.099   7.468
 2523W        W 9832  13.577   7.677   6.616
 2524W        W 9833   8.561   4.607   0.676
 2525W        W 9834  18.285   8.823   8.466
 2526W        W 9835  15.075   5.678   6.654
 2527W        W 9836  17.541   7.448   0.774
 2528W        W 9837  12.996   0.809   7.804
 2529W        W 9838  15.725   0.545   7.821
 2530W        W 9839   9.252   5.641   9.010
 2531W        W 9840  17.729   9.414   7.320
 2532W        W 9841   1.432   3.196   8.671
 2533W        W 9842  13.748   3.013   1.208
 2534W        W 9843  19.479   6.340   7.298
 2535W        W 9844  16.583   7.959   7.819
 2536W        W 9845   9.166   6.553   7.878
 2537W        W 9846  18.282   2.608   9.996
 2538W        W 9847   8.435   4.164   9.711
 2539W        W 9848  16.537   7.972   6.957
 2540W        W 9849   0.158   4.007   7.178
 2541W        W 9850  14.770   3.780   6.180
 2542W        W 9851   4.639   7.899   9.027
 2543W        W 9852  15.967   0.218   6.355
 2544W        W 9853   8.829   3.310   6.089
 2545W        W 9854   8.128   4.047   0.135
 2546W        W 9855  15.607   7.542   9.370
 2547W        W 9856  10.167   7.354   7.859
 2548W        W 9857   6.111   1.946   6.085
 2549W        W 9858   9.150   1.125   0.857
 2550W        W 9859   2.582   4.169   8.005
 2551W        W 9860  14.862   8.893   6.797
 2552W        W 9861   1.151   4.661   9.552
 2553W        W 9862  15.377   4.948   6.284
 2554W        W 9863   1.621   5.350   9.918
 2555W        W 9864  19.932   5.229   8.428
 2556W        W 9865  15.850   5.898   8.889
 2557W        W 9866   9.686   9.412   8.194
 2558W        W 9867  13.331   6.523   8.861
 2559W        W 9868   3.307   0.764   9.300
 2560W        W 9869   9.666   5.823   7.406
 2561W        W 9870  15.501   6.403   6.573
 2562W        W 9871   4.014   6.836   6.848
 2563W        W 9872   7.512   6.235   7.266
 2564W        W 9873   6.463   5.746   0.258
 2565W        W 9874  13.838   5.607   8.738
 2566W        W 9875  17.259   5.140   8.174
 2567W        W 9876  16.400   4.107   0.141
 2568W        W 9877   0.144   0.246   9.384
 2569W        W 9878   0.622   1.359   7.527
 2570W        W 9879  12.467   2.774   9.141
 2571W        W 9880  17.604   8.548   0.254
 2572W        W 9881   6.006   9.308   0.784
 2573W        W 9882   2.025   1.553   6.535
 2574W        W 9883  18.235   3.750   7.417
 2575W        W 9884   1.267   1.160   0.122
 2576W        W 9885  13.605   1.358   7.347
 2577W        W 9886   3.023   8.462   0.494
 2578W        W 9887   2.846   8.731   9.616
 2579W        W 9888  17.626   7.357   6.161
 2580W        W 9889   5.978   1.113   0.402
 2581W        W 9890   6.728   9.690   0.637
 2582W        W 9891   4.542   7.568   6.531
 2583W        W 9892   1.781   2.477   9.231
 2584W        W 9893  10.285   7.503   8.456
 2585W        W 9894  15.986   0.772   8.762
 2586W        W 9895   0.677   8.070   8.591
 2587W        W 9896   3.310   8.892   6.981
 2588W        W 9897   9.916   7.220   8.799
 2589W        W 9898  14.959   0.658   7.011
 2590W        W 9899   9.245   6.891   8.266
 2591W        W 9900   3.327   0.519   0.645
 2592W        W 9901  13.399   5.308   9.639
 2593W        W 9902   4.351   6.316   9.760
 2594W        W 9903  13.670   1.837   8.078
 2595W        W 9904  16.099   7.730   0.850
 2596W        W 9905   7.579   9.199   7.345
 2597W        W 9906  19.345   8.305   9.777
 2598W        W 9907  12.482   7.784   8.804
 2599W        W 9908   2.383   5.585   6.048
 2600W        W 9909   5.069   3.656   6.075
 2601W        W 9910   5.119   7.840   6.981
 2602W        W 9911   6.559   0.469   0.187
 2603W        W 9912   8.826   6.230   7.509
 2604W        W 9913   2.237   1.307   8.107
 2605W        W 9914   0.629   8.464   1.142
 2606W        W 9915  14.759   5.559   6.193
 2607W        W 9916  14.100   8.811   0.436
 2608W        W 9917  16.531   2.687   8.374
 2609W        W 9918  15.486   7.148   0.936
 2610W        W 9919  12.076   5.357   9.619
 2611W        W 9920   4.442   4.994   7.820
 2612W        W 9921   3.080   2.842   7.909
 2613W        W 9922  13.199   8.259   8.698
 2614W        W 9923  16.418   2.149   9.665
 2615W        W 9924   4.510   0.231   9.551
 2616W        W 9925  10.188   4.168   0.621
 2617W        W 9926  16.541   0.873   9.523
 2618W        W 9927   1.577   5.347   0.421
 2619W        W 9928  13.317   2.332   0.839
 2620W        W 9929   2.633   4.601   6.241
 2621W        W 9930  17.246   5.019   6.730
 2622W        W 9931   6.924   1.876   7.215
 2623W        W 9932  11.515   6.627   8.353
 2624W        W 9933   6.763   3.206   7.408
 2625W        W 9934  17.343   5.611   7.922
 2626W        W 9935   3.915   2.408   7.995
 2627W        W 9936  19.245   5.896   7.454
 2628W        W 9937  19.616   5.445   0.185
 2629W        W 9938  13.907   9.175   6.119
 2630W        W 9939   6.992   5.867   0.187
 2631W        W 9940   9.270   4.542   6.127
 2632W        W 9941  15.574   2.081   0.281
 2633W        W 9942  15.997   5.238   9.280
 2634W        W 9943   9.846   7.445   7.490
 2635W        W 9944   0.190   5.019   9.747
 2636W        W 9945  13.793   1.402   7.833
 2637W        W 9946  17.853   8.393   0.681
 2638W        W 9947  12.004   9.474   9.084
 2639W        W 9948  12.947   5.940   8.002
 2640W        W 9949   3.744   7.950   0.673
 2641W        W 9950   1.707   7.316   7.170
 2642W        W 9951  15.392   9.950   6.007
 2643W        W 9952   5.352   0.719   8.715
 2644W        W 9953  10.530   0.665   8.727
 2645W        W 9954  10.598   8.525   6.790
 2646W        W 9955  15.454   3.769   8.882
 2647W        W 9956  18.622   3.480   9.170
 2648W        W 9957   2.041   1.588   8.690
 2649W        W 9958  10.676   9.846   6.117
 2650W        W 9959  16.435   8.428   7.960
 2651W        W 9960  13.892   9.308   7.104
 2652W        W 9961   7.697   4.099   6.802
 2653W        W 9962   4.641   0.211   6.028
 2654W        W 9963  11.629   3.441   6.518
 2655W        W 9964   4.322   4.579   8.931
 2656W        W 9965  18.896   0.637   8.927
 2657W        W 9966  19.075   3.527   0.061
 2658W        W 9967  16.194   4.553   0.465
 2659W        W 9968  10.583   4.094   7.319
 2660W        W 9969   1.695   7.931   6.012
 2661W        W 9970   3.549   8.512   6.692
 2662W        W 9971   7.495   9.009   8.144
 2663W        W 9972   3.135   9.842   8.955
 2664W        W 9973   8.628   8.168   9.930
 2665W        W 9974   7.246   7.967   0.697
 2666W        W 9975   4.714   1.571   0.201
 2667W        W 9976   6.043   6.052   8.747
 2668W        W 9977  19.415   6.945   9.033
 2669W        W 9978  16.624   2.520   6.196
 2670W        W 9979   3.282   4.514   7.552
 2671W        W 9980   9.747   4.682   9.796
 2672W        W 9981  10.876   4.964   9.569
 2673W        W 9982  16.001   8.555   0.904
 2674W        W 9983   2.570   9.278   0.906
 2675W        W 9984   3.651   4.563   8.210
 2676W        W 9985  18.663   1.748   8.183
 2677W        W 9986  10.930   8.488   0.271
 2678W        W 9987   6.249   4.722   9.033
 2679W        W 9988  13.959   8.863   9.948
 2680W        W 9989   4.447   4.376   6.261
 2681W        W 9990  19.178   1.083   5.800
 2682W        W 9991  15.417   4.075   7.157
 2683W        W 9992  13.749   2.484   9.401
 2684W        W 9993  19.297   4.360   6.500
 2685W        W 9994   4.748   7.575   9.422
 2686W        W 9995   0.214   1.161   7.292
 2687W        W 9996   5.208   3.220   0.593
 2688W        W 9997   5.574   5.703   8.063
 2689W        W 9998  12.641   9.335   0.785
 2690W        W 9999  11.697   6.456   0.295
 2691W        W10000  14.982   8.193   9.137
 2692W        W10001  12.558   6.949   8.797
 2693W        W10002  11.478   7.692   0.633
 2694W        W10003  11.812   0.336   0.307
 2695W        W10004   1.036   1.649   7.615
 2696W        W10005  11.045   4.496   6.165
 2697W        W10006  12.589   5.427   9.307
 2698W        W10007  13.856   9.732   9.960
 2699W        W10008   0.689   9.320   6.660
 2700W        W10009  14.424   1.234   8.429
 2701W        W10010  17.763   1.298   8.967
 2702W        W10011  18.230   2.583   9.484
 2703W        W10012  12.819   8.632   6.114
 2704W        W10013  14.746   9.174   8.195
 2705W        W10014  14.195   6.809   6.611
 2706W        W10015   4.791   7.971   7.434
 2707W        W10016   2.683   9.836   8.701
 2708W        W10017  17.164   7.861   0.951
 2709W        W10018  15.902   0.341   9.958
 2710W        W10019   2.738   5.915   6.260
 2711W        W10020  15.938   8.076   9.135
 2712W        W10021  14.034   7.824   6.819
 2713W        W10022   5.243   6.662   8.001
 2714W        W10023  18.254   7.377   9.855
 2715W        W10024   8.821   8.618   9.744
 2716W        W10025  10.739   4.123   9.194
 2717W        W10026   8.455   6.024   8.846
 2718W        W10027   4.136   1.951   7.802
 2719W        W10028  13.031   6.512   8.436
 2720W        W10029  18.441   4.864   9.228
 2721W        W10030   5.536   8.848   9.705
 2722W        W10031  13.586   2.683   7.743
 2723W        W10032   0.123   7.258   9.430
 2724W        W10033  17.264   2.153   0.243
 2725W        W10034   2.603   2.801   9.649
 2726W        W10035  18.774   5.027   0.508
 2727W        W10036   4.712   2.641   8.307
 2728W        W10037   5.591   3.066   7.448
 2729W        W10038  16.994   4.401   8.688
 2730W        W10039   2.148   0.710   6.352
 2731W        W10040   9.911   6.477   6.648
 2732W        W10041  12.368   6.090   5.906
 2733W        W10042   4.077   3.159   0.332
 2734W        W10043   3.629   3.669   9.815
 2735W        W10044  14.488   8.051   0.062
 2736W        W10045   4.320   8.714   7.791
 2737W        W10046  19.420   2.568   6.162
 2738W        W10047  10.473   2.330   8.108
 2739W        W10048  12.252   7.460   7.434
 2740W        W10049  17.144   0.343   9.026
 2741W        W10050  10.151   8.447   7.028
 2742W        W10051  14.923   4.940   8.413
 2743W        W10052   3.567   3.708   9.315
 2744W        W10053  12.344   6.587   5.683
 2745W        W10054  19.802   1.271   7.554
 2746W        W10055  14.416   6.232   0.955
 2747W        W10056   7.870   8.217   5.942
 2748W        W10057   1.850   0.109   8.475
 2749W        W10058  16.345   2.234   1.188
 2750W        W10059   1.914   2.049   8.496
 2751W        W10060  19.673   1.704   1.289
 2752W        W10061   4.569   9.242   7.210
 2753W        W10062  12.004   0.133   5.860
 2754W        W10063   8.686   4.011   7.338
 2755W        W10064  18.180   8.507   7.186
 2756W        W10065   6.120   0.408   6.806
 2757W        W10066  14.529   7.432   8.185
 2758W        W10067   2.556   6.335   6.472
 2759W        W10068   2.354   0.200   8.528
 2760W        W10069  11.719   5.973   0.504
 2761W        W10070   0.741   4.142   8.334
 2762W        W10071   8.552   7.840   6.080
 2763W        W10072   0.306   4.103   6.556
 2764W        W10073  13.274   1.878   6.632
 2765W        W10074   1.455   1.710   8.577
 2766W        W10075   3.638   1.597   0.762
 2767W        W10076  16.084   8.153   7.118
 2768W        W10077   7.710   1.694   0.591
 2769W        W10078  11.803   1.366   8.374
 2770W        W10079   4.623   1.225   8.261
 2771W        W10080   2.863   2.824   7.453
 2772W        W10081  10.454   8.718   8.901
 2773W        W10082   1.527   1.748   6.911
 2774W        W10083   3.617   7.839   0.068
 2775W        W10084  17.683   2.720   6.675
 2776W        W10085  17.850   7.363   9.432
 2777W        W10086  13.340   2.752   0.117
 2778W        W10087  15.120   4.469   7.705
 2779W        W10088   0.335   8.894   0.079
 2780W        W10089  11.160   6.001   6.841
 2781W        W10090  14.451   4.081   7.605
 2782W        W10091   9.878   8.063   6.785
 2783W        W10092   9.602   2.577   0.785
 2784W        W10093  14.612   5.078   0.754
 2785W        W10094   7.661   3.535   5.989
 2786W        W10095   5.623   3.019   8.002
 2787W        W10096   1.717   3.590   0.584
 2788W        W10097   0.346   9.338   7.488
 2789W        W10098  19.423   3.962   6.171
 2790W        W10099   0.381   0.183   6.309
 2791W        W10100   2.611   6.975   8.903
 2792W        W10101   5.141   6.978   8.942
 2793W        W10102   5.113   1.383   7.995
 2794W        W10103  17.420   4.174   9.890
 2795W        W10104  19.583   2.197   8.432
 2796W        W10105   5.754   3.613   7.930
 2797W        W10106  17.846   7.390   0.193
 2798W        W10107  18.249   7.797   8.407
 2799W        W10108   6.738   5.034   6.334
 2800W        W10109  18.850   2.536   7.157
 2801W        W10110   4.587   2.040   0.429
 2802W        W10111  13.809   5.453   0.231
 2803W        W10112  13.587   2.013   9.512
 2804W        W10113   6.932   8.540   8.443
 2805W        W10114   5.604   3.734   0.526
 2806W        W10115  12.755   7.737   0.252
 2807W        W10116  11.503   5.879   5.963
 2808W        W10117  15.280   0.978   6.134
 2809W        W10118   0.866   3.649   8.368
 2810W        W10119   8.453   8.024   1.520
 2811W        W10120  12.238   0.204   8.115
 2812W        W10121  13.187   5.226   7.441
 2813W        W10122   1.327   0.271   0.261
 2814W        W10123  19.409   5.315   6.281
 2815W        W10124   4.760   7.901   0.645
 2816W        W10125  10.446   8.715   0.607
 2817W        W10126  15.474   5.419   6.484
 2818W        W10127  16.200   0.345   8.559
 2819W        W10128  15.807   1.685   9.201
 2820W        W10129  10.993   7.905   7.851
 2821W        W10130  12.882   2.099   6.900
 2822W        W10131  15.501   3.164   6.090
 2823W        W10132  13.802   4.654   7.824
 2824W        W10133   4.262   2.917   7.542
 2825W        W10134   8.891   7.631   6.393
 2826W        W10135   8.190   7.425   9.378
 2827W        W10136   8.459   2.938   1.164
 2828W        W10137   8.035   1.773   6.824
 2829W        W10138  10.542   5.906   7.065
 2830W        W10139  11.135   2.531   9.467
 2831W        W10140   0.031   2.776   7.940
 2832W        W10141   2.547   5.535   8.386
 2833W        W10142   4.338   5.943   7.815
 2834W        W10143  19.261   4.903   0.746
 2835W        W10144  15.958   2.662   8.591
 2836W        W10145   3.955   5.124   7.625
 2837W        W10146  19.794   8.565   9.723
 2838W        W10147   0.633   4.027   6.964
 2839W        W10148   8.645   2.008   9.707
 2840W        W10149   6.976   8.362   9.406
 2841W        W10150  17.451   0.374   8.182
 2842W        W10151   8.920   3.007   0.915
 2843W        W10152  10.136   2.726   0.901
 2844W        W10153  16.023   8.054   0.053
 2845W        W10154   0.769   9.176   7.773
 2846W        W10155   3.030   0.117   7.296
 2847W        W10156  13.704   7.594   7.107
 2848W        W10157  15.738   1.636   8.683
 2849W        W10158  19.354   2.558   7.217
 2850W        W10159   1.896   7.891   0.187
 2851W        W10160  18.562   7.071   7.829
 2852W        W10161  10.120   9.584   7.979
 2853W        W10162   3.869   2.792   8.355
 2854W        W10163  13.902   2.186   1.216
 2855W        W10164   5.193   0.258   9.218
 2856W        W10165   8.579   0.007   6.503
 2857W        W10166  16.493   3.082   9.186
 2858W        W10167   1.612   6.738   0.719
 2859W        W10168   9.667   7.302   9.853
 2860W        W10169   5.056   5.365   8.032
 2861W        W10170   7.763   8.669   5.712
 2862W        W10171   6.496   0.800   7.882
 2863W        W10172  10.960   6.860   0.913
 2864W        W10173   0.095   2.328   0.278
 2865W        W10174  10.236   6.327   8.741
 2866W        W10175  16.008   6.258   7.841
 2867W        W10176   5.212   5.634   8.896
 2868W        W10177   5.048   7.625   6.389
 2869W        W10178  18.415   4.005   6.463
 2870W        W10179  14.671   6.747   9.862
 2871W        W10180   7.294   3.438   0.656
 2872W        W10181   1.991   9.676   9.387
 2873W        W10182   0.123   9.799   7.637
 2874W        W10183   3.575   2.750   6.287
 2875W        W10184   0.193   1.610   7.593
 2876W        W10185  18.344   3.903   0.423
 2877W        W10186   0.264   2.215   9.777
 2878W        W10187   1.176   0.176   7.799
 2879W        W10188   5.603   8.293   8.428
 2880W        W10189  11.173   3.021   0.339
 2881W        W10190  14.544   5.046   6.798
 2882W        W10191   6.243   7.860   8.947
 2883W        W10192   4.592   8.856   0.114
 2884W        W10193   6.739   2.131   7.790
 2885W        W10194   9.635   1.040   0.668
 2886W        W10195   0.233   6.337   8.009
 2887W        W10196  18.998   7.749   8.088
 2888W        W10197  18.857   6.774   7.039
 2889W        W10198  15.482   9.447   9.536
 2890W        W10199  10.418   8.709   9.777
 2891W        W10200  14.778   2.511   9.307
 2892W        W10201  14.903   4.735   6.316
 2893W        W10202  19.070   7.580   6.625
 2894W        W10203  14.104   4.070   9.605
 2895W        W10204   7.052   0.114   6.631
 2896W        W10205   2.982   0.234   7.794
 2897W        W10206   7.992   9.883   7.632
 2898W        W10207  14.778   0.755   6.062
 2899W        W10208   0.534   9.006   5.687
 2900W        W10209   5.520   1.961   9.510
 2901W        W10210   2.597   2.688   7.905
 2902W        W10211  13.190   4.058   9.602
 2903W        W10212   2.247   4.099   0.513
 2904W        W10213  13.089   8.114   7.387
 2905W        W10214   7.499   7.246   6.324
 2906W        W10215   4.251   1.660   0.436
 2907W        W10216   2.211   6.394   6.879
 2908W        W10217  12.020   1.726   0.413
 2909W        W10218   6.648   4.082   8.518
 2910W        W10219   1.130   9.442   8.468
 2911W        W10220   8.543   6.592   6.411
 2912W        W10221  13.567   0.311   7.904
 2913W        W10222   2.599   6.116   9.670
 2914W        W10223  18.680   4.206   6.853
 2915W        W10224   1.766   2.436   9.758
 2916W        W10225   5.612   2.579   7.745
 2917W        W10226  12.581   7.220   1.087
 2918W        W10227   1.822   6.896   8.468
 2919W        W10228   7.609   6.377   0.225
 2920W        W10229   5.469   1.220   8.851
 2921W        W10230  16.180   2.775   0.325
 2922W        W10231  18.679   4.222   9.644
 2923W        W10232  13.068   9.860   7.850
 2924W        W10233  12.144   9.742   7.885
 2925W        W10234  16.756   7.128   8.389
 2926W        W10235  15.114   4.512   7.187
 2927W        W10236  18.121   2.273   0.789
 2928W        W10237   1.084   7.917   7.308
 2929W        W10238   9.862   5.134   6.325
 2930W        W10239   7.560   2.937   1.095
 2931W        W10240   4.156   3.340   0.829
 2932W        W10241   8.375   2.746   8.817
 2933W        W10242   2.637   5.966   7.674
 2934W        W10243   8.532   4.847   7.602
 2935W        W10244   0.852   8.489   9.769
 2936W        W10245  13.766   3.508   6.459
 2937W        W10246   0.182   6.557   0.991
 2938W        W10247  10.454   6.806   0.838
 2939W        W10248  19.577   7.692   6.618
 2940W        W10249   8.048   2.264   7.060
 2941W        W10250   9.082   1.415   6.579
 2942W        W10251  13.425   9.603   0.737
 2943W        W10252  13.809   1.807   7.521
 2944W        W10253  12.213   8.190   9.741
 2945W        W10254   7.527   6.551   8.010
 2946W        W10255   6.714   5.451   8.045
 2947W        W10256  18.963   8.553   6.171
 2948W        W10257  17.360   8.257   0.663
 2949W        W10258   9.099   2.288   9.650
 2950W        W10259  18.137   2.648   6.908
 2951W        W10260  12.121   9.359   9.567
 2952W        W10261  16.346   7.099   9.302
 2953W        W10262   1.464   6.208   7.961
 2954W        W10263   8.304   5.566   1.093
 2955W        W10264   5.787   7.814   6.626
 2956W        W10265  12.120   9.187   8.181
 2957W        W10266   8.348   0.704   0.890
 2958W        W10267  13.515   2.795   9.072
 2959W        W10268   4.464   4.938   9.690
 2960W        W10269   7.104   8.849   9.226
 2961W        W10270  14.314   9.400   8.965
 2962W        W10271  16.502   7.337   7.563
 2963W        W10272  17.311   1.245   9.227
 2964W        W10273  15.408   1.922   7.220
 2965W        W10274   3.403   7.527   0.602
 2966W        W10275   2.677   3.455   9.199
 2967W        W10276  14.155   3.879   7.206
 2968W        W10277  15.823   3.170   7.408
 2969W        W10278   9.701   1.669   6.633
 2970W        W10279  13.678   5.200   0.801
 2971W        W10280  18.625   6.703   7.492
 2972W        W10281   0.091   2.014   6.344
 2973W        W10282  16.099   5.764   9.413
 2974W        W10283   8.029   3.234   7.977
 2975W        W10284   0.597   0.033   7.844
 2976W        W10285   6.947   6.861   8.863
 2977W        W10286   0.833   1.345   9.171
 2978W        W10287  19.746   6.385   8.147
 2979W        W10288  16.870   1.105   7.930
 2980W        W10289  13.165   2.599   8.076
 2981W        W10290  17.486   4.751   9.651
 2982W        W10291  14.337   9.398   8.437
 2983W        W10292   1.212   3.682   9.401
 2984W        W10293  15.486   2.773   7.328
 2985W        W10294  10.053   9.293   7.136
 2986W        W10295   0.942   2.525   7.640
 2987W        W10296  17.824   8.213   6.823
 2988W        W10297   5.263   9.754   6.707
 2989W        W10298  14.642   4.361   6.106
 2990W        W10299  14.784   9.252   8.802
 2991W        W10300  16.652   9.294   7.506
 2992W        W10301  15.063   1.048   0.732
 2993W        W10302  12.873   2.133   7.746
 2994W        W10303   3.685   5.632   7.754
 2995W        W10304  14.395   4.411   0.085
 2996W        W10305  12.798   1.736   9.719
 2997W        W10306   0.373   6.995   6.648
 2998W        W10307  11.958   8.664   9.731
 2999W        W10308  11.073   1.842   8.214
 3000W        W10309   9.322   9.016   8.327
 3001W        W10310  15.194   9.289   6.833
 3002W        W10311   4.466   6.627   9.340
 3003W        W10312   9.282   8.174   7.481
 3004W        W10313  15.624   0.588   6.220
 3005W        W10314   2.883   5.345   9.624
 3006W        W10315  18.680   8.648   6.952
 3007W        W10316  14.364   8.951   8.696
 3008W        W10317   4.220   2.741   9.609
 3009W        W10318   8.824   5.888   8.493
 3010W        W10319   9.523   5.221   8.887
 3011W        W10320   1.186   9.294   7.449
 3012W        W10321  11.009   7.760   0.845
 3013W        W10322   0.701   2.920   0.392
 3014W        W10323   6.971   8.443   7.151
 3015W        W10324   4.644   5.519   6.789
 3016W        W10325   9.953   0.039   7.839
 3017W        W10326   5.289   8.858   6.854
 3018W        W10327  19.874   9.015   9.098
 3019W        W10328   2.268   8.715   6.205
 3020W        W10329  12.580   4.246   6.918
 3021W        W10330   7.154   7.977   6.786
 3022W        W10331   2.813   2.180   6.657
 3023W        W10332   6.259   1.546   0.278
 3024W        W10333  16.441   6.626   7.289
 3025W        W10334  10.859   3.262   0.940
 3026W        W10335   5.992   6.859   8.596
 3027W        W10336   0.752   2.703   6.683
 3028W        W10337   7.903   4.132   9.694
 3029W        W10338  11.978   2.515   8.966
 3030W        W10339  16.168   2.650   6.440
 3031W        W10340   3.363   3.143   7.532
 3032W        W10341  14.016   2.065   7.108
 3033W        W10342  16.428   3.971   6.583
 3034W        W10343   3.618   4.844   8.652
 3035W        W10344   2.210   8.872   8.810
 3036W        W10345   2.035   8.418   0.601
 3037W        W10346  14.334   7.740   9.301
 3038W        W10347  11.211   3.139   6.547
 3039W        W10348   8.988   2.524   7.175
 3040W        W10349   0.521   2.540   0.077
 3041W        W10350  13.551   0.077   8.989
 3042W        W10351   8.646   0.812   8.450
 3043W        W10352   4.745   7.651   8.589
 3044W        W10353  11.272   6.162   8.553
 3045W        W10354   1.944   0.561   6.819
 3046W        W10355   7.100   3.004   0.855
 3047W        W10356   5.950   4.062   9.034
 3048W        W10357  15.011   6.399   7.330
 3049W        W10358  13.032   7.046   7.160
 3050W        W10359  14.835   0.625   8.860
 3051W        W10360   1.475   0.763   0.402
 3052W        W10361  16.537   2.262   6.630
 3053W        W10362  18.483   4.750   6.969
 3054W        W10363  14.217   8.458   7.838
 3055W        W10364  12.117   1.787   7.903
 3056W        W10365   5.484   5.751   0.356
 3057W        W10366   1.099   6.497   8.219
 3058W        W10367  14.309   7.863   8.446
 3059W        W10368  16.902   1.671   0.722
 3060W        W10369  17.693   6.760   7.347
 3061W        W10370  14.099   4.010   0.148
 3062W        W10371   8.876   4.842   6.232
 3063W        W10372   7.165   6.433   9.447
 3064W        W10373  15.903   1.155   0.283
 3065W        W10374  10.114   6.851   6.308
 3066W        W10375   3.527   5.481   0.244
 3067W        W10376  13.640   1.212   0.092
 3068W        W10377  18.649   5.356   8.329
 3069W        W10378   7.673   8.586   8.879
 3070W        W10379  17.264   0.439   0.536
 3071W        W10380  15.493   1.068   9.364
 3072W        W10381  17.153   4.480   0.451
 3073W        W10382   0.714   0.881   6.789
 3074W        W10383  13.899   9.280   8.151
 3075W        W10384   3.260   0.301   9.137
 3076W        W10385   3.108   3.476   8.508
 3077W        W10386  16.363   3.530   8.896
 3078W        W10387  14.036   2.958   7.070
 3079W        W10388   2.284   7.983   0.672
 3080W        W10389   5.670   8.907   7.690
 3081W        W10390   3.426   7.482   9.717
 3082W        W10391   7.695   2.270   8.865
 3083W        W10392   1.500   7.902   6.986
 3084W        W10393   9.386   4.136   7.076
 3085W        W10394  19.570   8.758   8.745
 3086W        W10395   7.590   1.481   9.132
 3087W        W10396   9.880   8.655   0.605
 3088W        W10397  15.342   4.646   9.457
 3089W        W10398   7.296   5.344   7.523
 3090W        W10399   8.628   6.556   5.901
 3091W        W10400   3.764   2.018   9.500
 3092W        W10401  13.869   7.486   7.575
 3093W        W10402  12.978   8.965   8.375
 3094W        W10403  14.223   5.485   6.259
 3095W        W10404   5.211   1.058   7.600
 3096W        W10405  10.632   7.400   6.434
 3097W        W10406   0.196   3.226   9.658
 3098W        W10407   6.550   9.456   7.329
 3099W        W10408  16.841   9.501   0.970
 3100W        W10409  17.011   2.960   0.356
 3101W        W10410   7.020   1.333   0.671
 3102W        W10411   6.619   6.248   6.682
 3103W        W10412  12.813   2.502   9.415
 3104W        W10413   0.657   1.784   6.291
 3105W        W10414   3.671   0.671   7.417
 3106W        W10415  14.766   3.159   8.911
 3107W        W10416  10.500   4.093   7.841
 3108W        W10417   7.047   4.617   5.879
 3109W        W10418  16.309   9.302   7.869
 3110W        W10419   6.735   6.577   9.686
 3111W        W10420   8.162   1.351   8.877
 3112W        W10421  14.058   0.224   7.101
 3113W        W10422  11.456   7.819   6.509
 3114W        W10423  15.333   1.570   9.429
 3115W        W10424  11.683   1.252   6.873
 3116W        W10425   0.011   6.778   7.855
 3117W        W10426   3.278   0.206   8.635
 3118W        W10427   4.871   1.775   8.746
 3119W        W10428   2.082   7.053   8.895
 3120W        W10429  14.231   3.750   6.490
 3121W        W10430   9.097   1.863   9.924
 3122W        W10431  13.708   1.744   5.704
 3123W        W10432   6.169   5.593   9.780
 3124W        W10433   1.391   9.927   0.646
 3125W        W10434   6.954   2.025   0.882
 3126W        W10435  10.594   7.966   9.276
 3127W        W10436  18.168   9.064   8.946
 3128W        W10437  14.807   0.114   8.221
 3129W        W10438   6.314   2.662   0.759
 3130W        W10439  17.426   5.537   7.401
 3131W        W10440   9.690   7.237   6.318
 3132W        W10441  16.505   6.308   6.393
 3133W        W10442  15.913   5.143   8.396
 3134W        W10443  12.138   9.922   0.341
 3135W        W10444  10.669   6.114   9.796
 3136W        W10445   7.581   6.293   9.701
 3137W        W10446   0.911   5.182   6.103
 3138W        W10447   8.494   2.008   7.036
 3139W        W10448   6.784   5.422   7.549
 3140W        W10449   0.856   1.612   0.416
 3141W        W10450   8.933   6.143   6.092
 3142W        W10451   7.314   9.699   7.133
 3143W        W10452  18.542   2.927   7.088
 3144W        W10453   9.791   0.897   7.813
 3145W        W10454   4.979   9.400   7.472
 3146W        W10455  19.458   1.884   0.185
 3147W        W10456  18.951   3.775   6.926
 3148W        W10457   8.450   4.458   0.172
 3149W        W10458  18.501   8.100   8.050
 3150W        W10459   2.514   5.019   7.293
 3151W        W10460   3.894   3.287   8.125
 3152W        W10461   9.380   2.129   9.239
 3153W        W10462   4.147   6.399   7.981
 3154W        W10463   7.389   5.381   7.013
 3155W        W10464   6.242   9.619   6.500
 3156W        W10465   5.142   2.511   9.925
 3157W        W10466   6.411   9.130   9.702
 3158W        W10467   0.329   2.682   7.003
 3159W        W10468   9.620   0.945   8.796
 3160W        W10469   2.137   9.745   7.599
 3161W        W10470  16.453   0.893   6.098
 3162W        W10471   2.227   2.066   8.928
 3163W        W10472   1.799   2.064   6.626
 3164W        W10473   5.074   2.924   0.216
 3165W        W10474   8.747   4.002   9.301
 3166W        W10475   4.748   3.107   8.087
 3167W        W10476  14.310   5.537   7.097
 3168W        W10477   7.511   9.283   0.426
 3169W        W10478   8.999   2.626   6.683
 3170W        W10479  14.859   7.890   7.419
 3171W        W10480  13.967   0.201   8.713
 3172W        W10481   4.890   1.457   7.520
 3173W        W10482   9.039   4.196   8.849
 3174W        W10483   6.000   1.781   7.082
 3175W        W10484   1.716   7.000   6.003
 3176W        W10485   0.125   7.856   6.939
 3177W        W10486   2.474   9.325   8.776
 3178W        W10487  18.329   7.415   7.369
 3179W        W10488  18.737   6.472   0.523
 3180W        W10489   5.935   1.888   8.844
 3181W        W10490   2.452   0.379   6.110
 3182W        W10491  10.868   3.845   6.951
 3183W        W10492  17.246   5.653   9.228
 3184W        W10493   1.996   0.450   8.846
 3185W        W10494  15.782   0.309   0.463
 3186W        W10495   8.541   1.999   1.083
 3187W        W10496  15.614   9.561   6.838
 3188W        W10497  11.504   2.962   9.519
 3189W        W10498   9.802   9.049   8.565
 3190W        W10499  16.125   6.427   0.730
 3191W        W10500   2.190   3.007   8.718
 3192W        W10501  18.864   1.827   0.721
 3193W        W10502  17.335   7.603   6.504
 3194W        W10503   5.640   0.129   8.966
 3195W        W10504  18.400   0.792   8.951
 3196W        W10505  16.892   6.151   6.723
 3197W        W10506   2.724   2.673   6.520
 3198W        W10507  10.938   3.001   7.152
 3199W        W10508  15.677   7.322   7.063
 3200W        W10509  12.459   8.298   7.893
 3201W        W10510   3.157   4.532   8.108
 3202W        W10511  14.784   9.848   9.501
 3203W        W10512  15.662   1.591   0.219
 3204W        W10513   0.192   9.292   8.794
 3205W        W10514   4.184   4.665   7.515
 3206W        W10515   7.433   2.126   0.662
 3207W        W10516  11.915   9.114   0.607
 3208W        W10517  14.898   1.174   8.821
 3209W        W10518  17.724   3.799   7.514
 3210W        W10519   6.820   0.478   7.591
 3211W        W10520  13.362   7.412   9.751
 3212W        W10521   9.237   5.798   8.168
 3213W        W10522  11.108   6.998   7.425
 3214W        W10523  10.405   0.268   6.117
 3215W        W10524   6.638   2.639   7.987
 3216W        W10525  17.219   0.772   7.428
 3217W        W10526   3.539   7.696   7.018
 3218W        W10527  11.860   7.958   0.383
 3219W        W10528  18.744   7.873   9.279
 3220W        W10529   2.649   4.127   0.834
 3221W        W10530   9.739   3.973   0.814
 3222W        W10531  18.955   0.644   7.126
 3223W        W10532  10.080   1.729   7.929
 3224W        W10533   2.681   6.653   0.576
 3225W        W10534   6.539   0.102   6.744
 3226W        W10535  17.719   4.506   6.572
 3227W        W10536  15.993   1.490   0.684
 3228W        W10537  11.735   0.832   8.544
 3229W        W10538   7.550   6.427   0.753
 3230W        W10539   1.879   6.188   8.818
 3231W        W10540  10.029   5.156   9.848
 3232W        W10541  16.249   8.091   6.170
 3233W        W10542  13.324   0.819   0.225
 3234W        W10543   6.306   6.577   9.979
 3235W        W10544   1.664   9.386   6.157
 3236W        W10545  13.108   0.367   8.111
 3237W        W10546   6.090   4.934   7.454
 3238W        W10547  12.407   8.889   8.579
 3239W        W10548   5.096   4.413   0.254
 3240W        W10549   2.382   7.760   8.442
 3241W        W10550   6.448   1.217   8.189
 3242W        W10551  10.746   0.510   9.541
 3243W        W10552  12.350   7.124   8.303
 3244W        W10553   6.779   2.893   9.503
 3245W        W10554  10.413   7.487   9.310
 3246W        W10555  17.954   9.736   6.859
 3247W        W10556  16.816   4.181   6.898
 3248W        W10557  13.656   4.964   6.825
 3249W        W10558   4.159   8.979   8.611
 3250W        W10559   6.000   6.790   0.755
 3251W        W10560   2.804   4.604   0.742
 3252W        W10561  17.839   6.450   8.993
 3253W        W10562   2.752   5.966   8.181
 3254W        W10563  17.971   0.021   6.429
 3255W        W10564   1.117   3.101   0.088
 3256W        W10565   1.501   2.276   8.679
 3257W        W10566   7.957   0.917   7.901
 3258W        W10567   3.776   4.132   0.067
 3259W        W10568   0.079   2.526   8.938
 3260W        W10569   8.789   8.423   0.349
 3261W        W10570   0.845   9.696   6.998
 3262W        W10571  18.691   2.226   6.325
 3263W        W10572  12.888   0.967   0.464
 3264W        W10573   5.789   4.827   9.745
 3265W        W10574  19.546   1.748   9.209
 3266W        W10575  14.359   4.662   9.644
 3267W        W10576   2.828   3.950   9.816
 3268W        W10577  13.346   0.830   0.843
 3269W        W10578   5.946   9.944   8.482
 3270W        W10579   6.904   6.759   6.202
 3271W        W10580   1.618   8.025   8.875
 3272W        W10581   7.849   0.855   1.024
 3273W        W10582  11.570   2.651   7.190
 3274W        W10583   9.613   8.192   0.681
 3275W        W10584  18.622   6.318   0.044
 3276W        W10585   9.925   6.410   6.115
 3277W        W10586   6.975   6.002   8.692
 3278W        W10587  15.414   7.577   0.691
 3279W        W10588   5.725   6.913   6.145
 3280W        W10589  17.803   4.193   8.152
 3281W        W10590   3.720   2.029   1.053
 3282W        W10591   0.993   7.571   9.355
 3283W        W10592   8.149   0.721   9.518
 3284W        W10593   6.715   0.753   9.346
 3285W        W10594  17.767   2.647   9.232
 3286W        W10595  12.018   3.520   9.204
 3287W        W10596  19.365   8.321   5.949
 3288W        W10597  14.524   9.423   9.429
 3289W        W10598  10.135   8.505   6.527
 3290W        W10599   2.096   9.189   6.925
 3291W        W10600  15.759   3.400   9.158
 3292W        W10601  15.909   9.966   6.801
 3293W        W10602   4.011   7.862   7.907
 3294W        W10603  10.752   4.620   9.970
 3295W        W10604  11.744   2.278   7.485
 3296W        W10605   5.682   0.154   6.923
 3297W        W10606   8.888   1.196   8.188
 3298W        W10607   1.983   9.130   7.430
 3299W        W10608   0.773   4.442   7.224
 3300W        W10609   0.836   6.262   7.009
 3301W        W10610  15.258   5.583   6.033
 3302W        W10611   3.240   8.157   9.216
 3303W        W10612   8.809   5.034   8.454
 3304W        W10613   5.416   4.033   7.773
 3305W        W10614   0.460   7.652   9.496
 3306W        W10615   3.752   9.787   6.212
 3307W        W10616   4.282   3.776   6.980
 3308W        W10617   3.765   6.407   0.700
 3309W        W10618  11.885   6.430   7.015
 3310W        W10619  15.478   4.979   6.764
 3311W        W10620   2.516   2.627   8.760
 3312W        W10621  18.163   6.512   9.898
 3313W        W10622  13.029   1.841   0.166
 3314W        W10623   1.656   9.317   6.648
 3315W        W10624   6.791   3.804   9.509
 3316W        W10625   7.747   0.604   9.206
 3317W        W10626   6.458   5.651   9.354
 3318W        W10627  17.073   9.475   9.188
 3319W        W10628   4.762   5.065   0.654
 3320W        W10629   3.570   3.255   0.171
 3321W        W10630  17.289   2.611   9.463
 3322W        W10631  11.890   8.021   6.381
 3323W        W10632  12.082   3.069   1.236
 3324W        W10633  16.899   9.401   8.690
 3325W        W10634   8.211   1.297   7.655
 3326W        W10635  15.294   1.819   9.894
 3327W        W10636   3.528   0.151   0.964
 3328W        W10637   7.089   6.892   9.867
 3329W        W10638  19.273   4.380   0.762
 3330W        W10639  17.271   5.516   9.718
 3331W        W10640  17.468   5.987   9.596
 3332W        W10641  18.254   3.294   7.725
 3333W        W10642  10.540   1.172   7.053
 3334W        W10643   6.216   7.545   6.556
 3335W        W10644   6.814   6.669   6.901
 3336W        W10645   1.485   5.756   8.785
 3337W        W10646  19.140   1.065   8.712
 3338W        W10647   7.304   6.626   6.986
 3339W        W10648  10.342   6.393   6.976
 3340W        W10649  16.288   0.099   7.206
 3341W        W10650  11.740   8.054   6.895
 3342W        W10651   8.504   7.054   7.689
 3343W        W10652   0.766   9.891   9.406
 3344W        W10653   2.093   7.340   8.462
 3345W        W10654   5.690   6.956   6.750
 3346W        W10655   7.703   3.046   6.179
 3347W        W10656   8.681   2.302   8.826
 3348W        W10657   1.566   7.400   8.472
 3349W        W10658  18.696   2.180   8.952
 3350W        W10659  10.364   4.236   0.113
 3351W        W10660  11.276   7.422   8.780
 3352W        W10661   7.952   6.030   8.753
 3353W        W10662   1.545   7.420   9.332
 3354W        W10663  19.182   0.312   6.782
 3355W        W10664   8.990   4.002   7.971
 3356W        W10665  12.149   1.148   9.948
 3357W        W10666   3.490   9.420   6.480
 3358W        W10667  11.491   0.236   0.949
 3359W        W10668  19.328   1.701   6.429
 3360W        W10669   5.975   9.415   7.733
 3361W        W10670   0.855   3.862   7.905
 3362W        W10671   6.379   8.327   0.738
 3363W        W10672  14.018   1.541   8.330
 3364W        W10673   7.466   8.522   9.348
 3365W        W10674   9.131   7.040   7.161
 3366W        W10675  11.246   9.842   8.938
 3367W        W10676  17.457   8.262   6.114
 3368W        W10677   8.864   2.094   9.244
 3369W        W10678  17.926   3.040   9.495
 3370W        W10679  14.409   1.283   8.936
 3371W        W10680  17.809   2.221   8.963
 3372W        W10681  11.469   1.629   6.130
 3373W        W10682   3.343   2.783   0.122
 3374W        W10683  14.492   0.772   7.181
 3375W        W10684   2.404   1.211   8.595
 3376W        W10685  19.411   4.711   8.926
 3377W        W10686  15.908   3.682   5.993
 3378W        W10687  17.951   9.517   7.789
 3379W        W10688  17.869   6.927   6.307
 3380W        W10689  17.513   4.253   7.702
 3381W        W10690  14.503   2.957   0.138
 3382W        W10691  11.140   4.052   1.017
 3383W        W10692   4.264   1.780   9.928
 3384W        W10693  10.921   5.152   6.765
 3385W        W10694   7.373   6.054   7.990
 3386W        W10695   1.440   8.734   7.286
 3387W        W10696   5.954   4.502   7.792
 3388W        W10697  14.006   1.153   9.240
 3389W        W10698   8.083   7.952   0.724
 3390W        W10699   8.411   8.236   9.097
 3391W        W10700  16.450   7.971   9.135
 3392W        W10701   7.638   4.845   9.280
 3393W        W10702   6.925   2.417   6.213
 3394W        W10703   4.825   4.744   8.989
 3395W        W10704  17.336   5.328   8.837
 3396W        W10705   8.787   0.824   0.634
 3397W        W10706  18.404   6.287   8.267
 3398W        W10707   3.248   2.025   0.833
 3399W        W10708   2.748   4.074   0.313
 3400W        W10709  18.571   8.804   6.449
 3401W        W10710   0.391   3.389   7.360
 3402W        W10711   2.492   0.352   8.007
 3403W        W10712   9.454   2.090   0.913
 3404W        W10713  15.365   7.450   7.942
 3405W        W10714  18.263   3.004   8.160
 3406W        W10715   0.051   2.058   7.388
 3407W        W10716   6.017   5.829   7.729
 3408W        W10717  13.053   9.423   8.595
 3409W        W10718   4.912   4.966   6.062
 3410W        W10719  17.138   9.968   9.822
 3411W        W10720   3.710   6.025   9.056
 3412W        W10721  11.033   8.027   5.916
 3413W        W10722  16.654   0.185   8.817
 3414W        W10723   0.302   4.602   8.969
 3415W        W10724   6.289   7.839   8.419
 3416W        W10725  14.123   4.173   6.775
 3417W        W10726  18.519   8.914   9.292
 3418W        W10727   6.067   2.794   8.998
 3419W        W10728  15.348   1.408   6.439
 3420W        W10729  13.511   7.854   7.498
 3421W        W10730  18.704   9.953   7.652
 3422W        W10731  10.169   8.339   7.535
 3423W        W10732   6.502   4.580   6.550
 3424W        W10733   5.209   9.722   0.445
 3425W        W10734   7.608   3.097   0.103
 3426W        W10735  15.026   9.398   9.231
 3427W        W10736  18.153   8.395   0.266
 3428W        W10737   1.632   7.488   6.696
 3429W        W10738  12.728   2.008   9.284
 3430W        W10739   1.875   3.413   6.715
 3431W        W10740   0.751   5.918   8.417
 3432W        W10741  12.686   5.116   6.823
 3433W        W10742  10.562   5.141   9.931
 3434W        W10743   8.409   1.236   0.234
 3435W        W10744   8.103   1.600   9.322
 3436W        W10745   7.093   5.773   7.231
 3437W        W10746   4.495   1.175   9.708
 3438W        W10747   1.145   7.434   8.177
 3439W        W10748  10.643   9.759   7.255
 3440W        W10749   3.577   9.283   0.452
 3441W        W10750  12.049   9.888   9.388
 3442W        W10751  12.742   4.055   9.853
 3443W        W10752   6.611   8.810   0.064
 3444W        W10753  13.593   0.854   7.533
 3445W        W10754  11.104   9.732   7.565
 3446W        W10755  12.228   1.794   9.256
 3447W        W10756   1.634   8.028   9.753
 3448W        W10757  19.268   1.604   5.849
 3449W        W10758  10.433   0.287   9.911
 3450W        W10759   2.598   0.746   1.032
 3451W        W10760  17.504   0.890   0.472
 3452W        W10761   5.354   5.163   8.978
 3453W        W10762   4.932   9.094   8.840
 3454W        W10763  11.285   3.513   0.353
 3455W        W10764   4.751   1.131   6.820
 3456W        W10765  12.005   4.662   7.491
 3457W        W10766  14.047   4.581   8.330
 3458W        W10767   4.348   6.948   8.813
 3459W        W10768   9.300   4.854   6.538
 3460W        W10769  14.897   0.327   9.741
 3461W        W10770  17.673   0.612   7.250
 3462W        W10771   2.432   9.309   7.514
 3463W        W10772  13.604   0.451   0.440
 3464W        W10773  15.255   5.286   0.922
 3465W        W10774   6.598   7.105   0.426
 3466W        W10775   6.719   1.659   8.163
 3467W        W10776   4.952   3.174   6.170
 3468W        W10777  12.750   6.802   9.281
 3469W        W10778   0.354   9.025   8.302
 3470W        W10779  18.690   2.207   7.910
 3471W        W10780  19.623   0.302   9.266
 3472W        W10781  19.063   2.321   7.575
 3473W        W10782  19.733   3.999   8.475
 3474W        W10783   7.918   2.159   0.434
 3475W        W10784  18.433   4.631   8.760
 3476W        W10785  12.899   8.457   7.722
 3477W        W10786   3.577   3.619   7.786
 3478W        W10787  15.384   4.038   7.674
 3479W        W10788  17.495   7.346   8.468
 3480W        W10789  16.206   3.518   9.377
 3481W        W10790   8.003   9.191   6.964
 3482W        W10791   2.036   6.142   0.369
 3483W        W10792  12.072   5.730   9.967
 3484W        W10793  12.167   3.755   8.774
 3485W        W10794  14.829   7.881   8.415
 3486W        W10795  12.834   3.079   7.623
 3487W        W10796   1.691   4.048   0.832
 3488W        W10797  18.972   4.638   8.661
 3489W        W10798  17.340   1.299   0.752
 3490W        W10799   9.171   7.898   9.167
 3491W        W10800   3.716   2.617   9.790
 3492W        W10801   5.170   0.202   6.958
 3493W        W10802   8.993   6.428   7.058
 3494W        W10803   8.078   5.157   6.276
 3495W        W10804  19.139   4.385   9.401
 3496W        W10805  15.314   4.629   9.976
 3497W        W10806  12.563   2.165   6.502
 3498W        W10807   5.412   0.216   6.497
 3499W        W10808   5.770   7.282   9.500
 3500W        W10809  18.545   0.378   8.643
 3501W        W10810  18.143   8.548   9.378
 3502W        W10811   6.103   7.693   7.404
 3503W        W10812   0.574   6.213   0.610
 3504W        W10813  18.227   9.680   8.188
 3505W        W10814   7.604   1.818   7.815
 3506W        W10815   8.368   6.151   7.255
 3507W        W10816  13.526   1.844   7.087
 3508W        W10817  10.931   0.921   8.596
 3509W        W10818   3.419   2.929   0.611
 3510W        W10819   6.704   0.400   8.115
 3511W        W10820  15.606   6.374   0.847
 3512W        W10821   8.435   5.061   0.947
 3513W        W10822   3.036   0.831   9.751
 3514W        W10823  18.546   7.821   9.777
 3515W        W10824   2.060   6.413   8.378
 3516W        W10825  15.875   9.057   7.783
 3517W        W10826  12.461   2.689   0.693
 3518W        W10827  13.804   8.153   6.499
 3519W        W10828  14.497   3.196   7.018
 3520W        W10829  11.779   2.037   6.071
 3521W        W10830  17.850   2.882   7.700
 3522W        W10831   1.494   0.215   9.777
 3523W        W10832   6.986   8.522   1.140
 3524W        W10833   4.235   0.968   8.980
 3525W        W10834   2.112   7.496   0.667
 3526W        W10835  16.960   4.395   7.719
 3527W        W10836   6.652   5.227   0.045
 3528W        W10837   7.329   3.983   7.155
 3529W        W10838  12.998   7.104   0.767
 3530W        W10839   3.130   4.668   6.569
 3531W        W10840   5.973   9.742   6.076
 3532W        W10841  14.554   3.689   0.557
 3533W        W10842  17.893   3.184   8.476
 3534W        W10843  12.308   6.142   8.241
 3535W        W10844  12.451   9.361   6.804
 3536W        W10845  17.030   9.718   6.894
 3537W        W10846  17.687   0.817   6.060
 3538W        W10847  16.545   7.616   8.399
 3539W        W10848  19.285   1.650   6.943
 3540W        W10849  15.783   4.700   9.774
 3541W        W10850   4.317   6.020   7.290
 3542W        W10851   0.612   1.821   7.321
 3543W        W10852   0.691   4.848   9.689
 3544W        W10853  13.409   9.199   8.932
 3545W        W10854  10.748   3.457   7.251
 3546W        W10855  17.272   0.314   7.141
 3547W        W10856   5.985   2.264   7.286
 3548W        W10857   7.388   7.061   8.134
 3549W        W10858   4.069   1.434   8.820
 3550W        W10859   5.651   1.597   9.155
 3551W        W10860  19.892   6.815   6.375
 3552W        W10861   5.727   0.673   8.383
 3553W        W10862  12.819   8.505   7.229
 3554W        W10863  13.132   1.300   9.077
 3555W        W10864  13.371   8.868   0.781
 3556W        W10865   8.123   6.497   6.080
 3557W        W10866  10.865   0.103   7.844
 3558W        W10867  16.754   2.082   0.474
 3559W        W10868  11.592   1.858   7.925
 3560W        W10869   2.102   6.026   9.525
 3561W        W10870  10.851   6.386   6.975
 3562W        W10871  16.185   8.878   8.993
 3563W        W10872   9.466   0.234   6.578
 3564W        W10873  12.210   7.615   6.405
 3565W        W10874  10.366   3.209   7.024
 3566W        W10875  12.815   4.949   9.137
 3567W        W10876  15.936   1.240   8.966
 3568W        W10877   1.085   8.063   8.900
 3569W        W10878  16.337   2.219   0.190
 3570W        W10879   3.773   3.685   6.327
 3571W        W10880   0.885   5.384   7.651
 3572W        W10881  13.690   8.355   8.737
 3573W        W10882  12.339   7.571   6.927
 3574W        W10883   2.633   8.037   7.867
 3575W        W10884  16.932   8.824   7.569
 3576W        W10885   1.785   0.786   5.939
 3577W        W10886   4.873   6.178   8.399
 3578W        W10887   7.745   3.689   7.976
 3579W        W10888  15.732   1.641   7.504
 3580W        W10889  18.425   1.224   7.713
 3581W        W10890  14.555   1.219   9.938
 3582W        W10891  15.603   1.177   9.857
 3583W        W10892   1.150   1.637   6.063
 3584W        W10893  19.585   6.421   0.249
 3585W        W10894   9.714   0.486   9.707
 3586W        W10895  18.835   8.296   8.911
 3587W        W10896  12.074   7.224   9.817
 3588W        W10897  13.041   9.609   6.080
 3589W        W10898   6.776   9.925   8.276
 3590W        W10899  19.636   1.483   0.826
 3591W        W10900   9.135   0.722   8.141
 3592W        W10901   0.390   0.342   8.247
 3593W        W10902   4.682   1.606   7.059
 3594W        W10903   6.061   0.838   1.687
 3595W        W10904   7.247   3.681   7.918
 3596W        W10905   6.971   9.621   7.555
 3597W        W10906   1.694   5.198   6.770
 3598W        W10907   5.368   9.355   8.995
 3599W        W10908  12.476   0.652   9.177
 3600W        W10909   2.401   1.517   0.187
 3601W        W10910   6.410   3.467   9.216
 3602W        W10911  19.224   5.039   6.685
 3603W        W10912   3.305   8.479   9.601
 3604W        W10913   3.734   1.437   9.227
 3605W        W10914  11.591   6.243   7.547
 3606W        W10915   6.204   3.227   8.742
 3607W        W10916   8.063   0.397   7.790
 3608W        W10917  13.136   1.333   0.094
 3609W        W10918   1.256   1.242   7.841
 3610W        W10919  14.738   0.825   9.634
 3611W        W10920  16.743   3.928   7.896
 3612W        W10921   2.924   7.834   0.119
 3613W        W10922  19.291   8.700   0.602
 3614W        W10923  10.042   0.690   6.643
 3615W        W10924   8.160   4.597   9.744
 3616W        W10925  15.355   2.531   0.333
 3617W        W10926   6.127   6.172   6.289
 3618W        W10927  10.968   2.500   7.067
 3619W        W10928   6.383   1.638   8.947
 3620W        W10929   7.419   2.234   0.164
 3621W        W10930   9.799   8.234   8.767
 3622W        W10931  10.192   5.467   0.786
 3623W        W10932   8.630   5.867   9.363
 3624W        W10933  12.626   8.044   7.094
 3625W        W10934  11.483   1.638   0.543
 3626W        W10935   1.668   3.735   6.373
 3627W        W10936   1.094   4.359   5.947
 3628W        W10937   4.703   6.885   6.877
 3629W        W10938  16.285   6.422   0.176
 3630W        W10939   8.468   3.503   9.292
 3631W        W10940   8.242   4.615   8.848
 3632W        W10941  11.452   0.253   9.946
 3633W        W10942   1.766   0.955   0.027
 3634W        W10943  13.369   2.183   7.828
 3635W        W10944  18.104   3.459   9.725
 3636W        W10945   8.492   7.899   8.084
 3637W        W10946   1.952   9.365   8.797
 3638W        W10947  14.793   9.692   1.005
 3639W        W10948   2.994   0.796   8.833
 3640W        W10949   8.497   2.927   9.665
 3641W        W10950   3.224   6.185   8.926
 3642W        W10951   3.035   8.533   7.264
 3643W        W10952  10.221   5.874   0.437
 3644W        W10953   8.754   7.185   0.032
 3645W        W10954  14.846   7.689   9.929
 3646W        W10955  13.954   9.749   7.903
 3647W        W10956   0.375   0.141   0.856
 3648W        W10957  16.438   2.048   7.085
 3649W        W10958  14.062   3.094   8.324
 3650W        W10959   4.879   3.543   8.400
 3651W        W10960   4.133   5.451   6.027
 3652W        W10961  18.793   9.153   9.894
 3653W        W10962   3.911   8.386   7.957
 3654W        W10963  18.917   5.207   0.967
 3655W        W10964   7.083   0.878   0.899
 3656W        W10965  12.847   6.556   9.733
 3657W        W10966  11.023   8.520   7.075
 3658W        W10967   2.068   2.844   6.504
 3659W        W10968   3.794   9.762   7.190
 3660W        W10969  16.510   1.618   0.360
 3661W        W10970  16.720   8.677   8.893
 3662W        W10971   8.917   8.651   7.470
 3663W        W10972   8.495   5.460   8.443
 3664W        W10973  14.225   2.503   0.239
 3665W        W10974   2.483   0.710   8.888
 3666W        W10975  11.213   3.420   6.997
 3667W        W10976   7.627   6.320   6.770
 3668W        W10977   0.602   5.338   9.817
 3669W        W10978  15.992   3.615   7.162
 3670W        W10979  19.114   1.482   8.408
 3671W        W10980   1.452   6.891   7.322
 3672W        W10981   2.798   6.478   7.453
 3673W        W10982  15.969   3.587   7.669
 3674W        W10983   7.612   5.937   0.508
 3675W        W10984  17.412   3.056   9.197
 3676W        W10985   1.120   6.610   0.702
 3677W        W10986  12.589   3.621   0.676
 3678W        W10987  10.089   3.595   8.098
 3679W        W10988  15.697   7.722   8.841
 3680W        W10989   2.529   9.202   6.611
 3681W        W10990   6.239   0.520   6.312
 3682W        W10991  18.696   2.623   9.206
 3683W        W10992  14.408   0.315   7.934
 3684W        W10993  18.244   2.089   8.174
 3685W        W10994   3.139   4.188   0.645
 3686W        W10995  12.414   2.194   7.953
 3687W        W10996   7.368   1.626   7.389
 3688W        W10997   9.985   4.209   9.782
 3689W        W10998   7.584   7.034   7.663
 3690W        W10999   0.181   9.886   8.144
 3691W        W11000   8.767   5.946   7.017
 3692W        W11001   1.617   5.437   0.904
 3693W        W11002  10.903   9.658   8.599
 3694W        W11003   0.099   2.501   0.898
 3695W        W11004  13.000   2.702   8.977
 3696W        W11005  18.715   1.288   0.001
 3697W        W11006  19.651   7.375   9.569
 3698W        W11007   2.081   7.055   9.774
 3699W        W11008   5.410   0.242   7.953
 3700W        W11009   4.167   6.488   7.473
 3701W        W11010   4.891   9.914   9.454
 3702W        W11011  17.850   2.612   0.266
 3703W        W11012   3.397   2.582   8.217
 3704W        W11013  12.081   3.491   0.913
 3705W        W11014   6.001   8.885   9.451
 3706W        W11015   1.858   7.481   7.624
 3707W        W11016  11.669   6.841   6.796
 3708W        W11017  15.417   4.908   7.761
 3709W        W11018   1.154   7.546   6.485
 3710W        W11019  12.818   2.555   8.463
 3711W        W11020   3.302   9.730   0.479
 3712W        W11021  14.925   7.742   7.922
 3713W        W11022  10.746   1.225   9.979
 3714W        W11023  12.771   8.062   8.505
 3715W        W11024  15.432   6.697   7.264
 3716W        W11025  19.070   4.389   9.939
 3717W        W11026   4.488   9.562   9.396
 3718W        W11027  19.500   0.661   0.565
 3719W        W11028  11.422   5.502   6.327
 3720W        W11029  12.432   8.926   5.943
 3721W        W11030  17.610   0.319   9.709
 3722W        W11031   1.185   4.531   9.045
 3723W        W11032  13.021   4.517   9.848
 3724W        W11033   0.797   4.409   7.736
 3725W        W11034  18.431   7.915   7.471
 3726W        W11035  12.519   5.321   0.378
 3727W        W11036   1.306   6.400   7.234
 3728W        W11037  12.039   3.046   0.214
 3729W        W11038  11.693   8.197   9.880
 3730W        W11039   9.111   5.471   8.552
 3731W        W11040  12.636   9.746   0.361
 3732W        W11041  17.126   9.447   7.369
 3733W        W11042  12.309   3.804   6.889
 3734W        W11043  13.969   1.131   8.703
 3735W        W11044   0.802   4.320   9.965
 3736W        W11045   8.947   3.060   0.400
 3737W        W11046   1.663   0.234   9.275
 3738W        W11047  19.974   8.802   0.886
 3739W        W11048   6.603   1.620   9.423
 3740W        W11049   6.394   1.077   0.101
 3741W        W11050   3.162   8.724   8.428
 3742W        W11051  12.117   1.272   6.599
 3743W        W11052   8.583   7.379   0.862
 3744W        W11053  18.280   5.232   0.606
 3745W        W11054   2.373   7.019   6.659
 3746W        W11055   0.411   1.554   8.951
 3747W        W11056  10.099   0.840   0.526
 3748W        W11057   5.202   4.093   0.724
 3749W        W11058   3.523   6.271   9.476
 3750W        W11059   9.034   1.395   8.673
 3751W        W11060  13.133   9.228   9.947
 3752W        W11061  10.765   3.692   9.993
 3753W        W11062  10.736   4.179   0.707
 3754W        W11063  12.300   6.550   6.198
 3755W        W11064   0.664   3.374   6.553
 3756W        W11065   2.685   0.849   7.489
 3757W        W11066  14.579   9.940   6.613
 3758W        W11067  11.072   2.976   6.062
 3759W        W11068   8.154   6.395   9.058
 3760W        W11069   4.311   7.369   8.494
 3761W        W11070   2.807   8.845   0.807
 3762W        W11071  13.419   6.851   0.620
 3763W        W11072   6.271   6.504   9.463
 3764W        W11073   7.664   0.227   7.449
 3765W        W11074   6.641   6.158   0.524
 3766W        W11075  -0.002   0.083   9.888
 3767W        W11076   0.006   1.948   9.376
 3768W        W11077   9.918   2.983   9.495
 3769W        W11078  11.611   9.146   9.254
 3770W        W11079   7.899   7.408   7.113
 3771W        W11080   3.004   6.614   6.184
 3772W        W11081  12.863   1.476   0.527
 3773W        W11082  11.359   5.831   7.788
 3774W        W11083  14.378   1.671   9.763
 3775W        W11084   3.745   2.308   8.474
 3776W        W11085   1.911   1.437   7.035
 3777W        W11086  18.789   6.518   7.969
 3778W        W11087   5.927   9.233   9.825
 3779W        W11088   5.249   8.995   7.332
 3780W        W11089   4.492   1.980   9.520
 3781W        W11090   7.655   0.133   8.524
 3782W        W11091   2.319   8.755   6.732
 3783W        W11092   9.711   2.185   6.601
 3784W        W11093  16.380   5.375   9.609
 3785W        W11094   3.886   1.900   8.717
 3786W        W11095  16.651   5.296   7.342
 3787W        W11096  13.472   3.581   8.587
 3788W        W11097   2.538   4.705   9.469
 3789W        W11098  16.450   8.467   6.931
 3790W        W11099   8.412   7.421   6.365
 3791W        W11100  19.622   2.284   0.460
 3792W        W11101  11.154   9.054   6.322
 3793W        W11102   7.127   3.734   6.736
 3794W        W11103   8.663   8.692   9.152
 3795W        W11104  13.484   2.246   8.337
 3796W        W11105   7.518   0.272   0.395
 3797W        W11106   3.043   1.904   7.025
 3798W        W11107  10.267   6.052   6.303
 3799W        W11108   3.386   8.380   0.096
 3800W        W11109   1.206   6.597   9.737
 3801W        W11110   4.272   8.812   0.836
 3802W        W11111   1.240   6.065   8.471
 3803W        W11112   6.552   5.812   6.944
 3804W        W11113  13.364   3.215   6.423
 3805W        W11114   7.933   7.352   6.587
 3806W        W11115   7.234   2.990   8.381
 3807W        W11116   4.867   7.149   6.439
 3808W        W11117   1.772   5.205   8.001
 3809W        W11118  13.321   8.967   6.919
 3810W        W11119  14.947   7.559   6.453
 3811W        W11120   3.612   5.350   8.534
 3812W        W11121   6.964   9.476   8.056
 3813W        W11122  16.420   4.138   0.661
 3814W        W11123  19.482   4.931   8.437
 3815W        W11124   6.352   0.527   9.636
 3816W        W11125  15.577   2.322   7.538
 3817W        W11126   4.236   9.579   7.889
 3818W        W11127   4.205   1.531   8.320
 3819W        W11128  12.170   5.124   7.327
 3820W        W11129  13.980   0.196   8.183
 3821W        W11130   0.323   4.461   8.456
 3822W        W11131  15.026   2.002   0.807
 3823W        W11132   7.574   3.553   6.952
 3824W        W11133  18.457   7.028   9.536
 3825W        W11134  16.281   5.491   0.098
 3826W        W11135  19.710   9.776   8.555
 3827W        W11136  18.203   6.539   6.818
 3828W        W11137  18.697   1.467   1.056
 3829W        W11138   0.752   9.896   8.891
 3830W        W11139  10.873   1.626   7.385
 3831W        W11140  16.671   7.494   7.079
 3832W        W11141   4.261   9.766   6.415
 3833W        W11142  11.125   1.243   8.979
 3834W        W11143   5.939   9.248   6.212
 3835W        W11144   7.129   9.411   9.474
 3836W        W11145   6.682   6.463   8.661
 3837W        W11146   7.013   5.689   6.733
 3838W        W11147  14.531   7.683   6.147
 3839W        W11148   7.679   0.542   8.145
 3840W        W11149  13.957   8.300   0.529
 3841W        W11150   3.612   3.201   9.269
 3842W        W11151  17.159   8.837   9.906
 3843W        W11152  17.006   2.940   8.410
 3844W        W11153   9.919   7.722   0.731
 3845W        W11154  12.719   0.208   6.810
 3846W        W11155   6.949   5.900   7.706
 3847W        W11156   4.772   8.772   8.062
 3848W        W11157   0.838   4.790   0.168
 3849W        W11158  18.344   6.084   9.661
 3850W        W11159  18.982   5.411   7.471
 3851W        W11160  12.353   8.073   6.184
 3852W        W11161   3.563   5.049   9.947
 3853W        W11162   9.483   7.098   9.408
 3854W        W11163   1.362   3.626   7.427
 3855W        W11164  10.428   8.410   0.201
 3856W        W11165  18.031   4.621   7.951
 3857W        W11166  13.149   8.897   0.329
 3858W        W11167   2.836   2.690   0.102
 3859W        W11168  11.618   0.133   9.481
 3860W        W11169   3.242   4.108   0.137
 3861W        W11170  10.997   3.249   8.252
 3862W        W11171   8.325   7.459   7.406
 3863W        W11172  14.276   1.631   7.376
 3864W        W11173   9.270   0.648   0.639
 3865W        W11174  13.417   3.578   8.076
 3866W        W11175   5.607   5.875   8.561
 3867W        W11176  17.360   1.689   8.438
 3868W        W11177   9.466   6.107   9.111
 3869W        W11178  13.073   3.325   6.809
 3870W        W11179  10.200   0.487   9.508
 3871W        W11180   5.633   3.744   6.374
 3872W        W11181   5.518   2.154   9.029
 3873W        W11182   2.434   9.426   9.610
 3874W        W11183   4.210   2.868   6.706
 3875W        W11184  10.480   2.253   0.986
 3876W        W11185   5.239   0.225   0.329
 3877W        W11186   0.158   8.564   8.121
 3878W        W11187  19.616   4.002   0.591
 3879W        W11188  19.757   6.127   9.519
 3880W        W11189  19.270   3.072   9.729
 3881W        W11190  16.902   6.552   7.529
 3882W        W11191   7.701   5.658   8.021
 3883W        W11192  15.062   1.053   7.349
 3884W        W11193  10.923   9.270   7.720
 3885W        W11194  15.092   6.150   8.721
 3886W        W11195  11.255   4.038   0.465
 3887W        W11196   4.319   8.273   7.050
 3888W        W11197  11.776   3.849   6.840
 3889W        W11198  18.067   1.405   6.403
 3890W        W11199   7.350   6.812   8.566
 3891W        W11200  13.808   7.474   8.856
 3892W        W11201  14.619   0.927   0.978
 3893W        W11202  11.739   6.918   0.078
 3894W        W11203  17.736   6.923   8.304
 3895W        W11204  15.843   4.640   0.834
 3896W        W11205  18.407   3.060   0.243
 3897W        W11206   5.399   3.405   0.148
 3898W        W11207   4.404   3.917   7.745
 3899W        W11208  16.020   3.290   0.316
 3900W        W11209   1.276   0.677   9.941
 3901W        W11210  13.845   3.026   6.587
 3902W        W11211   1.810   2.985   8.380
 3903W        W11212  15.430   5.075   8.224
 3904W        W11213  12.575   1.078   7.293
 3905W        W11214  12.129   9.761   7.364
 3906W        W11215  19.703   2.181   8.956
 3907W        W11216   7.086   4.076   7.618
 3908W        W11217  12.295   3.199   8.894
 3909W        W11218   2.442   1.174   9.124
 3910W        W11219  10.097   4.561   8.093
 3911W        W11220  16.502   0.586   7.956
 3912W        W11221  12.406   6.161   9.231
 3913W        W11222   4.587   3.585   9.309
 3914W        W11223   6.444   2.048   0.171
 3915W        W11224  18.199   1.203   8.700
 3916W        W11225  19.866   8.343   8.846
 3917W        W11226  14.389   0.804   8.694
 3918W        W11227  18.922   9.326   9.033
 3919W        W11228  13.038   4.501   9.321
 3920W        W11229  19.605   6.560   9.749
 3921W        W11230   9.928   5.395   7.522
 3922W        W11231  15.005   4.975   7.002
 3923W        W11232   2.414   5.033   6.804
 3924W        W11233  10.131   2.499   9.427
 3925W        W11234  13.192   1.873   0.669
 3926W        W11235   5.164   8.515   9.538
 3927W        W11236  14.774   4.567   6.784
 3928W        W11237   8.855   0.368   0.274
 3929W        W11238  17.502   5.077   0.073
 3930W        W11239  16.005   9.328   6.522
 3931W        W11240   2.689   0.571   8.426
 3932W        W11241  16.931   2.065   8.930
 3933W        W11242  16.444   0.808   8.463
 3934W        W11243  14.611   8.835   0.717
 3935W        W11244   9.645   8.200   9.745
 3936W        W11245   6.698   1.370   8.622
 3937W        W11246  15.633   5.608   9.262
 3938W        W11247  14.746   9.878   0.000
 3939W        W11248   1.480   9.740   9.272
 3940W        W11249  16.023   1.928   0.451
 3941W        W11250   4.620   1.628   9.179
 3942W        W11251  13.526   6.001   0.972
 3943W        W11252  18.368   0.799   9.469
 3944W        W11253  16.270   6.054   8.632
 3945W        W11254  15.281   2.315   6.633
 3946W        W11255  17.844   3.933   9.165
 3947W        W11256  10.693   6.054   6.604
 3948W        W11257  16.394   4.871   7.179
 3949W        W11258   8.536   3.888   6.580
 3950W        W11259   5.308   1.694   9.896
 3951W        W11260  11.164   5.842   9.804
 3952W        W11261   6.195   7.951   6.939
 3953W        W11262  11.608   8.532   7.973
 3954W        W11263  13.047   5.882   0.335
 3955W        W11264  19.728   5.629   0.678
 3956W        W11265   4.686   3.548   6.402
 3957W        W11266   5.205   8.976   9.302
 3958W        W11267  11.460   6.980   9.637
 3959W        W11268   2.085   0.109   7.203
 3960W        W11269   7.986   4.135   8.846
 3961W        W11270  10.209   6.832   8.550
 3962W        W11271   4.837   3.934   6.939
 3963W        W11272   5.491   2.138   7.482
 3964W        W11273  12.031   7.794   9.008
 3965W        W11274   6.651   5.069   8.684
 3966W        W11275   9.710   7.891   7.292
 3967W        W11276  19.156   4.070   0.362
 3968W        W11277   6.830   2.148   8.846
 3969W        W11278  14.426   3.400   9.237
 3970W        W11279   9.812   3.981   8.410
 3971W        W11280  10.409   1.044   8.418
 3972W        W11281  17.988   7.792   9.697
 3973W        W11282  12.094   4.255   6.779
 3974W        W11283   4.919   9.378   0.175
 3975W        W11284   4.594   9.240   9.788
 3976W        W11285  19.900   4.458   6.718
 3977W        W11286   2.321   1.954   0.492
 3978W        W11287  10.264   4.060   9.358
 3979W        W11288  11.203   4.361   9.876
 3980W        W11289  11.828   3.951   8.432
 3981W        W11290  11.607   7.384   9.920
 3982W        W11291   6.686   9.997   7.773
 3983W        W11292   8.419   5.391   9.314
 3984W        W11293  10.581   6.226   0.332
 3985W        W11294   0.966   2.209   9.330
 3986W        W11295  13.055   5.896   5.757
 3987W        W11296  16.430   3.550   6.883
 3988W        W11297   5.601   8.441   7.461
 3989W        W11298  19.349   3.558   0.492
 3990W        W11299   1.945   4.958   9.378
 3991W        W11300   8.072   4.725   0.795
 3992W        W11301  10.586   7.845   8.769
 3993W        W11302   0.765   8.354   7.389
 3994W        W11303  13.429   1.819   6.130
 3995W        W11304   1.074   1.641   7.113
 3996W        W11305   0.674   0.659   8.783
 3997W        W11306   7.648   4.979   0.681
 3998W        W11307   7.466   0.872   7.761
 3999W        W11308  10.808   6.348   0.885
 4000W        W11309   3.026   4.212   6.768
 4001W        W11310   6.879   9.249   9.883
 4002W        W11311  10.972   5.518   6.106
 4003W        W11312   8.598   2.351   7.908
 4004W        W11313   0.197   6.726   7.372
 4005W        W11314  13.075   6.084   8.856
 4006W        W11315  17.942   6.975   9.743
 4007W        W11316  14.918   1.368   8.330
 4008W        W11317   8.964   2.795   6.175
 4009W        W11318   8.388   6.098   7.783
 4010W        W11319   9.590   8.500   6.726
 4011W        W11320   0.217   7.190   8.500
 4012W        W11321  15.716   6.826   0.608
 4013W        W11322   2.280   0.798   5.867
 4014W        W11323   0.531   2.055   0.234
 4015W        W11324  12.604   3.570   0.146
 4016W        W11325  11.493   8.834   0.654
 4017W        W11326  17.342   2.418   7.252
 4018W        W11327  18.542   0.495   0.715
 4019W        W11328  19.100   9.725   7.434
 4020W        W11329  13.811   1.922   8.599
 4021W        W11330  11.697   9.020   7.937
 4022W        W11331   0.498   0.257   9.753
 4023W        W11332   7.747   5.551   6.146
 4024W        W11333   2.672   9.332   7.076
 4025W        W11334  17.370   0.624   6.419
 4026W        W11335   4.216   4.007   9.808
 4027W        W11336   8.470   7.923   7.073
 4028W        W11337   4.114   1.824   9.171
 4029W        W11338  16.240   8.812   9.975
 4030W        W11339  18.386   6.843   0.570
 4031W        W11340   3.204   7.301   7.744
 4032W        W11341   5.184   3.193   7.783
 4033W        W11342   3.359   3.241   8.042
 4034W        W11343   6.225   5.627   8.915
 4035W        W11344   6.718   6.514   9.171
 4036W        W11345   1.337   7.594   9.772
 4037W        W11346  10.495   0.175   8.588
 4038W        W11347   2.279   2.288   6.670
 4039W        W11348   7.963   3.450   9.285
 4040W        W11349   9.195   4.106   0.150
 4041W        W11350  11.643   2.775   7.695
 4042W        W11351  15.207   6.735   0.787
 4043W        W11352  10.790   6.380   8.744
 4044W        W11353  19.933   0.242   8.445
 4045W        W11354  18.713   1.719   7.676
 4046W        W11355  11.692   9.135   9.750
 4047W        W11356   2.641   0.845   6.278
 4048W        W11357   8.297   3.125   7.552
 4049W        W11358  14.760   1.135   6.939
 4050W        W11359  13.048   2.598   7.051
 4051W        W11360   9.317   8.111   6.429
 4052W        W11361   9.268   4.055   9.280
 4053W        W11362   6.514   3.629   8.313
 4054W        W11363  19.211   2.332   8.873
 4055W        W11364   9.718   5.568   9.890
 4056W        W11365   7.177   3.935   8.449
 4057W        W11366   5.230   9.822   7.724
 4058W        W11367  11.922   6.771   9.611
 4059W        W11368  13.484   4.499   0.147
 4060W        W11369  15.305   8.604   9.868
 4061W        W11370  10.781   2.063   0.320
 4062W        W11371   6.027   5.016   0.431
 4063W        W11372   8.949   5.430   9.362
 4064W        W11373  15.055   8.249   8.071
 4065W        W11374   1.118   8.450   9.293
 4066W        W11375   1.628   1.241   6.124
 4067W        W11376   9.599   9.111   9.752
 4068W        W11377   0.871   8.862   6.485
 4069W        W11378   2.172   8.275   9.262
 4070W        W11379   3.875   8.254   0.276
 4071W        W11380   3.271   5.337   1.222
 4072W        W11381  17.254   9.497   9.661
 4073W        W11382   0.774   2.050   7.788
 4074W        W11383   4.579   4.451   7.877
 4075W        W11384   7.300   0.584   6.704
 4076W        W11385   3.980   9.329   6.322
 4077W        W11386  14.444   5.915   9.991
 4078W        W11387  17.887   1.361   6.897
 4079W        W11388  18.179   0.321   6.802
 4080W        W11389  17.020   3.416   8.623
 4081W        W11390  10.856   5.205   7.479
 4082W        W11391   7.584   3.018   0.597
 4083W        W11392  10.746   9.273   8.292
 4084W        W11393  10.175   8.002   8.490
 4085W        W11394  17.931   1.786   0.784
 4086W        W11395  16.262   3.027   5.510
 4087W        W11396   9.637   8.833   9.301
 4088W        W11397   3.855   7.291   7.026
 4089W        W11398  12.831   0.464   0.127
 4090W        W11399  13.675   8.404   9.703
 4091W        W11400  12.000   2.558   0.496
 4092W        W11401  16.999   7.444   0.656
 4093W        W11402   8.774   9.664   8.086
 4094W        W11403   6.287   2.368   7.710
 4095W        W11404  14.266   3.220   0.561
 4096W        W11405   6.757   4.677   9.010
 4097W        W11406   2.812   8.038   7.321
 4098W        W11407  19.640   4.549   9.358
 4099W        W11408  10.039   0.213   8.832
 4100W        W11409  13.240   7.836   8.393
 4101W        W11410  12.024   0.568   7.352
 4102W        W11411   5.115   5.582   6.606
 4103W        W11412  19.541   6.995   7.856
 4104W        W11413   3.592   0.649   6.678
 4105W        W11414  12.070   4.371   9.612
 4106W        W11415   3.694   8.398   9.291
 4107W        W11416   6.169   6.172   0.303
 4108W        W11417   4.395   5.967   8.336
 4109W        W11418   1.651   4.468   8.329
 4110W        W11419  15.978   8.538   9.372
 4111W        W11420  14.819   4.637   0.221
 4112W        W11421   5.987   0.180   9.835
 4113W        W11422  19.108   1.555   8.930
 4114W        W11423   9.333   9.227   0.175
 4115W        W11424  11.449   8.660   9.769
 4116W        W11425   9.978   9.006   8.102
 4117W        W11426   7.065   8.458   6.141
 4118W        W11427  19.333   2.246   7.989
 4119W        W11428   2.245   4.968   0.355
 4120W        W11429   2.292   3.775   9.318
 4121W        W11430   4.235   9.493   0.720
 4122W        W11431   7.863   5.013   9.696
 4123W        W11432   2.169   1.853   6.915
 4124W        W11433   4.917   0.337   6.467
 4125W        W11434   2.847   0.090   9.330
 4126W        W11435   2.400   5.188   9.527
 4127W        W11436  19.804   2.069   0.925
 4128W        W11437   6.186   6.420   8.437
 4129W        W11438   7.356   5.480   0.319
 4130W        W11439   3.188   9.422   9.218
 4131W        W11440  19.458   3.582   8.247
 4132W        W11441   2.878   5.492   7.989
 4133W        W11442   0.653   1.339   7.037
 4134W        W11443   1.007   4.871   6.657
 4135W        W11444   0.610   5.977   7.909
 4136W        W11445   1.875   9.702   0.685
 4137W        W11446  19.203   9.275   6.757
 4138W        W11447  18.318   9.121   0.684
 4139W        W11448   6.805   7.675   8.515
 4140W        W11449   2.286   8.843   0.932
 4141W        W11450   8.430   5.328   6.694
 4142W        W11451   0.500   5.290   0.664
 4143W        W11452  14.349   9.400   7.384
 4144W        W11453   2.531   4.904   9.934
 4145W        W11454   6.297   3.760   8.793
 4146W        W11455  17.003   7.324   9.670
 4147W        W11456   5.935   4.616   8.323
 4148W        W11457  10.144   8.210   8.035
 4149W        W11458   3.420   8.580   7.946
 4150W        W11459  17.441   1.725   9.981
 4151W        W11460   3.710   9.235   9.953
 4152W        W11461  15.337   6.009   8.311
 4153W        W11462   5.756   8.778   6.651
 4154W        W11463  18.210   2.155   7.105
 4155W        W11464  10.541   5.863   7.937
 4156W        W11465  19.949   8.040   6.491
 4157W        W11466  10.040   2.500   6.913
 4158W        W11467  16.789   7.487   7.967
 4159W        W11468  14.626   2.137   7.934
 4160W        W11469  18.667   2.671   7.630
 4161W        W11470   3.766   9.713   0.745
 4162W        W11471  16.202   1.739   9.977
 4163W        W11472   9.155   7.279   9.745
 4164W        W11473   0.618   3.988   7.467
 4165W        W11474  16.443   6.131   8.148
 4166W        W11475   6.363   5.357   0.592
 4167W        W11476   4.802   8.794   7.044
 4168W        W11477  11.354   1.170   8.524
 4169W        W11478   5.642   4.969   0.741
 4170W        W11479  14.134   4.986   6.057
 4171W        W11480   2.029   1.650   7.769
 4172W        W11481  19.069   7.208   7.821
 4173W        W11482  16.535   6.708   6.064
 4174W        W11483   6.635   9.996   7.270
 4175W        W11484  14.385   7.996   7.583
 4176W        W11485  19.384   3.129   0.800
 4177W        W11486  18.146   7.561   6.845
 4178W        W11487  19.385   9.820   9.260
 4179W        W11488   3.011   6.802   7.111
 4180W        W11489  15.814   4.637   9.262
 4181W        W11490  12.430   2.579   5.764
 4182W        W11491   1.504   4.739   6.615
 4183W        W11492  14.939   4.081   7.405
 4184W        W11493  10.054   5.027   7.189
 4185W        W11494  19.126   2.494   8.384
 4186W        W11495  19.430   3.965   9.296
 4187W        W11496  15.261   4.547   6.620
 4188W        W11497   0.592   6.393   8.360
 4189W        W11498  12.947   8.630   6.772
 4190W        W11499  15.962   2.741   7.115
 4191W        W11500   0.284   6.266   9.544
 4192W        W11501   8.435   2.978   6.645
 4193W        W11502  15.905   1.900   7.065
 4194W        W11503   0.880   1.247   8.276
 4195W        W11504   8.195   0.621   8.260
 4196W        W11505   0.871   0.885   0.892
 4197W        W11506   9.523   3.850   8.838
 4198W        W11507  17.738   7.305   8.925
 4199W        W11508   2.173   8.392   1.164
 4200W        W11509  10.690   5.457   0.959
 4201W        W11510   5.282   8.737   0.871
 4202W        W11511   2.667   7.939   9.689
 4203W        W11512   1.176   3.930   0.739
 4204W        W11513  12.957   6.184   7.561
 4205W        W11514   3.710   4.965   9.143
 4206W        W11515   4.443   1.128   6.221
 4207W        W11516   4.430   7.441   8.984
 4208W        W11517   5.428   3.575   7.532
 4209W        W11518  19.818   0.889   0.886
 4210W        W11519  16.404   6.773   6.621
 4211W        W11520   9.342   5.886   5.901
 4212W        W11521  12.798   1.667   8.393
 4213W        W11522   6.190   8.835   7.496
 4214W        W11523  17.919   5.857   8.393
 4215W        W11524  15.984   3.658   6.655
 4216W        W11525   7.130   6.995   6.611
 4217W        W11526  16.456   8.706   0.691
 4218W        W11527   1.080   8.363   8.413
 4219W        W11528   2.359   7.686   7.599
 4220W        W11529   4.414   6.795   6.444
 4221W        W11530   8.179   9.355   8.679
 4222W        W11531  12.532   8.751   9.089
 4223W        W11532  17.214   3.422   0.292
 4224W        W11533   0.638   9.196   6.164
 4225W        W11534  12.568   1.873   0.454
 4226W        W11535  19.252   1.029   8.196
 4227W        W11536   1.777   9.859   8.899
 4228W        W11537   7.432   4.411   8.482
 4229W        W11538  12.187   6.765   6.731
 4230W        W11539   8.675   9.778   9.818
 4231W        W11540   2.824   2.314   9.704
 4232W        W11541   4.582   2.173   0.956
 4233W        W11542   0.904   9.404   8.928
 4234W        W11543   1.150   8.416   0.203
 4235W        W11544  17.873   2.515   5.723
 4236W        W11545   0.368   9.333   9.832
 4237W        W11546  18.226   1.203   9.768
 4238W        W11547  10.008   1.479   6.265
 4239W        W11548  18.564   4.806   6.066
 4240W        W11549   9.053   9.866   9.439
 4241W        W11550   1.012   4.370   0.464
 4242W        W11551   7.043   3.816   0.443
 4243W        W11552  10.251   6.423   9.895
 4244W        W11553   7.486   6.032   8.959
 4245W        W11554   1.751   5.858   9.202
 4246W        W11555   4.286   0.610   6.125
 4247W        W11556   4.688   8.291   8.292
 4248W        W11557  11.964   9.078   8.760
 4249W        W11558   5.583   0.077   6.046
 4250W        W11559   8.129   1.855   9.771
 4251W        W11560   7.943   9.403   9.120
 4252W        W11561  18.387   1.824   6.362
 4253W        W11562  14.615   3.926   0.101
 4254W        W11563   5.679   6.975   9.961
 4255W        W11564   2.646   9.698   6.698
 4256W        W11565   9.157   9.358   6.252
 4257W        W11566   4.895   2.681   6.078
 4258W        W11567  12.705   5.876   6.769
 4259W        W11568   3.309   4.993   9.493
 4260W        W11569   7.036   6.409   7.847
 4261W        W11570   2.573   0.278   7.497
 4262W        W11571  10.813   7.466   7.662
 4263W        W11572   8.161   6.949   6.349
 4264W        W11573  18.742   7.377   0.058
 4265W        W11574  18.600   7.444   6.430
 4266W        W11575  14.862   0.133   7.724
 4267W        W11576   4.353   3.171   9.871
 4268W        W11577   6.731   0.866   8.417
 4269W        W11578  18.281   2.961   8.712
 4270W        W11579   9.476   2.435   7.862
 4271W        W11580  16.816   5.196   8.474
 4272W        W11581  12.689   4.009   8.803
 4273W        W11582  14.992   6.753   0.275
 4274W        W11583   8.820   9.416   9.487
 4275W        W11584   2.317   6.311   7.367
 4276W        W11585  13.975   6.326   7.460
 4277W        W11586   0.439   6.076   6.684
 4278W        W11587   0.805   5.996   0.192
 4279W        W11588  12.672   4.760   8.655
 4280W        W11589  19.172   3.938   8.478
 4281W        W11590  17.344   7.637   8.894
 4282W        W11591   5.363   6.965   7.510
 4283W        W11592   0.342   1.628   0.438
 4284W        W11593   8.071   3.829   6.196
 4285W        W11594   4.801   8.032   6.586
 4286W        W11595  12.513   6.452   7.479
 4287W        W11596  18.268   8.072   0.638
 4288W        W11597   6.787   4.033   7.164
 4289W        W11598   6.934   4.273   9.360
 4290W        W11599   5.978   4.443   9.388
 4291W        W11600  15.356   2.322   6.127
 4292W        W11601  12.157   3.833   7.857
 4293W        W11602   0.740   7.090   0.758
 4294W        W11603  12.722   6.458   8.873
 4295W        W11604   4.474   1.216   0.523
 4296W        W11605   1.690   4.255   6.478
 4297W        W11606   8.473   2.167   0.582
 4298W        W11607  19.350   7.792   8.457
 4299W        W11608  13.751   3.816   6.859
 4300W        W11609   8.019   9.996   0.990
 4301W        W11610  14.435   2.910   7.469
 4302W        W11611   1.753   3.605   9.357
 4303W        W11612  11.418   0.148   8.567
 4304W        W11613  18.277   5.165   6.709
 4305W        W11614   6.195   0.553   0.547
 4306W        W11615  13.756   2.662   8.259
 4307W        W11616  19.392   6.933   0.044
 4308W        W11617   1.189   5.865   9.351
 4309W        W11618   6.184   0.853   9.240
 4310W        W11619  13.033   9.410   8.092
 4311W        W11620  17.589   8.607   9.177
 4312W        W11621   7.982   5.101   8.777
 4313W        W11622   6.167   1.195   7.763
 4314W        W11623   4.221   7.832   8.742
 4315W        W11624  18.729   4.169   8.724
 4316W        W11625  18.826   9.519   8.571
 4317W        W11626   1.996   9.007   7.939
 4318W        W11627  19.655   5.009   7.487
 4319W        W11628   5.926   1.930   6.593
 4320W        W11629  15.116   8.723   9.040
 4321W        W11630  18.424   0.229   6.341
 4322W        W11631   6.289   7.425   9.259
 4323W        W11632  15.815   8.533   9.989
 4324W        W11633  10.111   3.258   0.999
 4325W        W11634  14.515   2.669   0.634
 4326W        W11635   3.682   5.469   6.272
 4327W        W11636  16.249   7.603   7.940
 4328W        W11637   5.669   4.863   7.122
 4329W        W11638   1.187   9.335   9.365
 4330W        W11639   2.727   6.372   8.830
 4331W        W11640   8.603   5.553   0.671
 4332W        W11641   3.662   4.225   0.582
 4333W        W11642  17.965   4.667   7.010
 4334W        W11643   0.831   7.577   9.866
 4335W        W11644  15.350   0.577   7.341
 4336W        W11645  16.031   4.494   7.238
 4337W        W11646   2.976   1.350   9.796
 4338W        W11647  16.576   0.662   0.020
 4339W        W11648  16.729   9.797   7.346
 4340W        W11649   7.510   3.151   8.782
 4341W        W11650   9.003   6.890   9.169
 4342W        W11651   7.678   7.728   8.636
 4343W        W11652  12.537   9.697   9.544
 4344W        W11653   9.086   9.917   0.102
 4345W        W11654   3.752   1.794   8.225
 4346W        W11655   4.619   6.178   8.834
 4347W        W11656   3.977   3.798   8.029
 4348W        W11657   2.640   1.012   0.560
 4349W        W11658   6.934   9.063   8.811
 4350W        W11659   6.049   4.460   0.399
 4351W        W11660  13.098   5.397   9.204
 4352W        W11661  16.071   5.022   0.259
 4353W        W11662   2.346   6.796   7.556
 4354W        W11663   8.342   2.184   0.103
 4355W        W11664  17.903   1.832   6.170
 4356W        W11665  17.313   1.270   9.739
 4357W        W11666  13.588   0.576   9.313
 4358W        W11667   0.326   8.503   9.746
 4359W        W11668   6.082   8.983   8.013
 4360W        W11669  17.736   6.437   0.213
 4361W        W11670   2.726   6.301   6.962
 4362W        W11671   4.999   8.878   0.400
 4363W        W11672  14.318   0.760   9.932
 4364W        W11673  14.080   0.108   1.252
 4365W        W11674   6.956   9.040   8.312
 4366W        W11675  17.115   6.279   6.228
 4367W        W11676  16.672   5.353   0.425
 4368W        W11677  11.462   8.312   7.317
 4369W        W11678   1.699   5.797   0.194
 4370W        W11679   3.808   8.380   9.795
 4371W        W11680  12.531   7.007   7.395
 4372W        W11681   2.299   6.052   9.067
 4373W        W11682   0.856   0.103   7.374
 4374W        W11683   4.463   7.633   9.840
 4375W        W11684   0.673   4.191   6.184
 4376W        W11685   3.778   5.929   0.387
 4377W        W11686  19.381   8.537   6.975
 4378W        W11687  18.672   0.844   7.981
 4379W        W11688   6.073   5.789   7.196
 4380W        W11689   7.577   8.269   7.267
 4381W        W11690   3.329   0.887   7.071
 4382W        W11691   4.500   6.527   8.478
 4383W        W11692   3.574   8.345   1.076
 4384W        W11693   5.386   4.555   0.665
 4385W        W11694  18.873   3.161   6.121
 4386W        W11695   4.697   0.973   0.151
 4387W        W11696   4.559   8.504   6.660
 4388W        W11697   8.657   6.340   9.592
 4389W        W11698  13.148   0.862   9.361
 4390W        W11699   5.046   6.651   8.505
 4391W        W11700  11.003   0.875   6.975
 4392W        W11701   8.008   0.906   0.539
 4393W        W11702  14.231   5.920   6.543
 4394W        W11703  14.272   8.910   8.191
 4395W        W11704  16.707   4.592   6.593
 4396W        W11705  16.802   4.846   9.405
 4397W        W11706   3.528   1.714   7.027
 4398W        W11707   6.765   7.272   9.078
 4399W        W11708   5.978   9.236   6.736
 4400W        W11709   3.821   6.478   9.860
 4401W        W11710  14.441   5.611   9.577
 4402W        W11711   5.601   9.280   9.436
 4403W        W11712  12.992   9.998   6.408
 4404W        W11713   5.889   8.436   0.753
 4405W        W11714   4.190   2.065   8.308
 4406W        W11715   6.165   7.203   6.101
 4407W        W11716  12.529   6.621   8.402
 4408W        W11717  19.893   9.901   0.389
 4409W        W11718   1.461   6.793   0.180
 4410W        W11719   3.488   9.903   6.810
 4411W        W11720   0.737   8.378   6.864
 4412W        W11721  16.854   9.218   0.087
 4413W        W11722   3.083   7.085   0.588
 4414W        W11723  14.722   7.487   7.129
 4415W        W11724   1.105   5.846   8.034
 4416W        W11725   9.739   4.650   6.383
 4417W        W11726   0.261   4.474   0.932
 4418W        W11727  10.789   5.853   8.869
 4419W        W11728   5.716   3.274   8.429
 4420W        W11729   8.548   0.263   8.413
 4421W        W11730  13.343   3.454   7.561
 4422W        W11731   8.764   8.807   6.993
 4423W        W11732  17.270   5.131   9.343
 4424W        W11733   7.188   7.887   9.327
 4425W        W11734   4.018   5.128   1.006
 4426W        W11735   9.831   3.805   6.890
 4427W        W11736  12.001   1.607   6.213
 4428W        W11737  15.039   8.797   7.693
 4429W        W11738  16.026   4.407   8.287
 4430W        W11739  17.753   5.899   6.736
 4431W        W11740  16.989   6.182   0.655
 4432W        W11741   0.934   2.846   8.023
 4433W        W11742   4.169   6.380   6.977
 4434W        W11743   6.604   0.648   6.751
 4435W        W11744  18.265   8.037   7.005
 4436W        W11745   2.762   4.993   0.384
 4437W        W11746  11.020   2.385   8.208
 4438W        W11747   9.574   9.199   7.358
 4439W        W11748  13.351   3.196   9.854
 4440W        W11749   9.763   0.512   0.747
 4441W        W11750   8.357   2.045   9.178
 4442W        W11751   7.994   5.644   8.433
 4443W        W11752   8.477   1.225   0.755
 4444W        W11753   7.639   6.448   9.207
 4445W        W11754  13.636   7.901   0.626
 4446W        W11755   2.065   3.733   6.027
 4447W        W11756   2.342   4.984   9.064
 4448W        W11757   0.316   2.953   6.543
 4449W        W11758   9.918   0.651   9.105
 4450W        W11759  19.676   5.135   0.607
 4451W        W11760  15.728   8.915   9.628
 4452W        W11761   0.209   5.106   8.843
 4453W        W11762   8.022   2.984   0.872
 4454W        W11763  11.539   4.422   0.296
 4455W        W11764   5.516   6.823   9.477
 4456W        W11765   9.076   5.463   6.166
 4457W        W11766   3.348   0.170   8.134
 4458W        W11767  15.188   9.316   8.469
 4459W        W11768   6.925   5.534   6.239
 4460W        W11769  18.227   1.643   8.437
 4461W        W11770  11.177   8.215   9.892
 4462W        W11771  11.311   7.911   8.275
 4463W        W11772   9.814   8.844   7.086
 4464W        W11773  15.713   6.960   9.759
 4465W        W11774  13.452   6.369   6.561
 4466W        W11775  19.618   7.979   7.487
 4467W        W11776   5.589   4.208   0.368
 4468W        W11777   6.207   8.854   6.974
 4469W        W11778   9.700   4.718   5.877
 4470W        W11779   7.700   8.752   7.129
 4471W        W11780  19.102   4.768   6.259
 4472W        W11781  10.419   0.199   7.088
 4473W        W11782  12.806   7.700   6.752
 4474W        W11783   3.113   6.088   9.780
 4475W        W11784   7.309   0.594   7.328
 4476W        W11785   5.823   8.418   9.675
 4477W        W11786  19.581   1.669   8.219
 4478W        W11787   1.116   7.812   7.805
 4479W        W11788  15.186   1.530   7.468
 4480W        W11789  12.117   4.887   0.952
 4481W        W11790  18.736   5.529   0.571
 4482W        W11791  16.890   1.046   6.705
 4483W        W11792  17.509   6.910   0.549
 4484W        W11793   2.157   9.227   0.608
 4485W        W11794  10.756   7.047   0.238
 4486W        W11795   5.476   6.781   0.798
 4487W        W11796  10.856   0.877   0.957
 4488W        W11797   2.107   4.132   7.204
 4489W        W11798   6.013   6.244   7.453
 4490W        W11799  18.844   0.761   9.927
 4491W        W11800  11.878   0.345   8.613
 4492W        W11801   0.082   0.282   7.831
 4493W        W11802  19.822   1.294   6.980
 4494W        W11803   1.318   9.776   6.203
 4495W        W11804   3.848   6.930   7.387
 4496W        W11805   3.774   9.690   0.218
 4497W        W11806  14.460   0.316   7.425
 4498W        W11807   5.809   0.632   9.624
 4499W        W11808  10.245   3.178   8.384
 4500W        W11809   3.428   8.497   8.867
 4501W        W11810   7.734   7.469   0.075
 4502W        W11811   3.822   2.733   9.276
 4503W        W11812   5.909   3.207   9.219
 4504W        W11813  15.273   9.963   0.322
 4505W        W11814   2.856   6.863   9.347
 4506W        W11815   2.007   1.061   6.713
 4507W        W11816   5.116   8.053   0.302
 4508W        W11817  10.388   6.919   9.867
 4509W        W11818   1.117   6.967   1.068
 4510W        W11819   7.262   3.128   7.498
 4511W        W11820   2.570   6.433   8.339
 4512W        W11821  16.843   0.037   0.235
 4513W        W11822   6.264   9.913   8.067
 4514W        W11823  19.868   4.591   7.715
 4515W        W11824   0.958   2.526   0.899
 4516W        W11825  18.596   0.331   9.689
 4517W        W11826   9.319   5.985   8.630
 4518W        W11827  18.347   4.923   8.288
 4519W        W11828  12.895   3.379   6.315
 4520W        W11829   6.537   0.172   9.296
 4521W        W11830   5.957   7.280   8.886
 4522W        W11831   9.884   1.180   8.404
 4523W        W11832   9.855   2.224   9.090
 4524W        W11833   4.522   6.632   1.112
 4525W        W11834   0.551   6.024   6.171
 4526W        W11835  16.446   6.491   8.771
 4527W        W11836  13.296   3.698   7.083
 4528W        W11837  11.445   8.469   0.269
 4529W        W11838  18.979   0.091   8.549
 4530W        W11839  14.959   4.951   1.154
 4531W        W11840   5.782   6.379   0.976
 4532W        W11841  11.488   3.591   8.283
 4533W        W11842  17.769   6.816   6.821
 4534W        W11843   8.834   0.859   7.637
 4535W        W11844   2.821   1.024   6.961
 4536W        W11845  19.215   3.346   8.676
 4537W        W11846  14.859   6.901   7.428
 4538W        W11847   8.162   8.757   8.908
 4539W        W11848  16.688   9.338   8.218
 4540W        W11849   3.454   7.681   9.180
 4541W        W11850   6.706   7.188   6.831
 4542W        W11851  17.707   5.233   9.626
 4543W        W11852  10.232   7.938   0.163
 4544W        W11853  11.456   4.283   6.719
 4545W        W11854  19.080   7.286   8.326
 4546W        W11855   4.506   0.572   7.844
 4547W        W11856   3.200   0.624   8.356
 4548W        W11857  13.632   2.260   7.401
 4549W        W11858  19.791   4.107   7.575
 4550W        W11859   9.479   7.470   8.985
 4551W        W11860  10.015   8.556   8.409
 4552W        W11861  12.223   7.018   0.264
 4553W        W11862  12.948   9.353   7.074
 4554W        W11863   5.329   8.033   6.538
 4555W        W11864   6.685   8.053   0.425
 4556W        W11865  17.014   5.458   6.531
 4557W        W11866   8.458   0.990   7.995
 4558W        W11867   2.998   5.437   0.191
 4559W        W11868   2.629   1.052   0.054
 4560W        W11869  16.111   5.605   8.495
 4561W        W11870  17.764   1.352   7.916
 4562W        W11871  10.728   2.700   7.822
 4563W        W11872   8.481   6.918   9.268
 4564W        W11873   7.962   6.003   6.010
 4565W        W11874   6.882   2.617   8.592
 4566W        W11875  19.860   3.157   6.122
 4567W        W11876  14.180   7.259   6.054
 4568W        W11877  13.488   3.621   9.600
 4569W        W11878  11.629   7.825   8.668
 4570W        W11879   9.954   6.012   0.002
 4571W        W11880   5.355   7.292   0.738
 4572W        W11881  16.629   3.145   8.131
 4573W        W11882  15.513   2.760   0.831
 4574W        W11883   9.147   8.504   6.119
 4575W        W11884   0.700   1.794   6.803
 4576W        W11885  12.949   0.705   6.796
 4577W        W11886  11.391   9.658   8.416
 4578W        W11887   5.799   1.799   0.973
 4579W        W11888  17.339   7.319   0.270
 4580W        W11889   8.128   2.297   6.024
 4581W        W11890   1.521   4.853   7.133
 4582W        W11891   2.301   1.614   7.345
 4583W        W11892  16.209   6.919   7.625
 4584W        W11893   0.687   0.455   1.157
 4585W        W11894   9.424   5.448   0.282
 4586W        W11895  15.989   6.157   6.519
 4587W        W11896   1.682   8.411   0.119
 4588W        W11897   9.804   2.156   9.592
 4589W        W11898   3.046   4.566   0.292
 4590W        W11899   2.263   4.604   7.084
 4591W        W11900  15.898   5.145   6.513
 4592W        W11901   0.711   1.325   6.015
 4593W        W11902   4.454   5.801   9.634
 4594W        W11903   9.461   0.048   7.574
 4595W        W11904   8.175   1.805   0.767
 4596W        W11905   1.554   0.898   6.960
 4597W        W11906   9.254   1.922   6.574
 4598W        W11907  17.042   9.241   6.581
 4599W        W11908  16.433   3.912   9.681
 4600W        W11909  14.992   4.022   8.951
 4601W        W11910  13.033   4.524   0.879
 4602W        W11911  11.659   2.075   8.792
 4603W        W11912  10.808   7.964   8.333
 4604W        W11913   0.818   8.050   9.359
 4605W        W11914  16.593   1.797   6.306
 4606W        W11915   3.785   5.070   0.421
 4607W        W11916  12.824   3.771   6.837
 4608W        W11917  13.319   5.623   8.777
 4609W        W11918  14.239   8.874   9.191
 4610W        W11919   0.102   0.740   8.062
 4611W        W11920   1.573   7.671   8.025
 4612W        W11921  11.330   2.670   6.733
 4613W        W11922   3.648   7.417   7.486
 4614W        W11923   9.953   0.931   9.539
 4615W        W11924   8.392   1.480   8.098
 4616W        W11925   3.399   5.927   6.803
 4617W        W11926   5.592   2.101   8.500
 4618W        W11927   9.325   9.263   9.353
 4619W        W11928  15.012   3.029   9.344
 4620W        W11929  16.357   8.213   0.838
 4621W        W11930   9.130   0.582   6.810
 4622W        W11931  10.610   2.867   8.836
 4623W        W11932   5.597   1.577   6.798
 4624W        W11933  16.803   6.220   8.518
 4625W        W11934  14.487   7.047   0.231
 4626W        W11935  11.424   4.682   7.064
 4627W        W11936   8.709   7.480   7.885
 4628W        W11937   3.183   1.096   7.549
 4629W        W11938  15.000   2.776   0.559
 4630W        W11939   3.745   5.061   8.110
 4631W        W11940  16.896   5.629   6.997
 4632W        W11941  11.641   7.834   7.383
 4633W        W11942   8.562   9.025   8.747
 4634W        W11943   8.946   4.552   0.327
 4635W        W11944   3.527   4.542   9.388
 4636W        W11945   1.497   0.306   8.795
 4637W        W11946  17.449   8.305   7.961
 4638W        W11947   5.489   9.402   7.560
 4639W        W11948   6.516   4.471   7.059
 4640W        W11949   8.059   4.964   7.772
 4641W        W11950   6.265   8.840   9.010
 4642W        W11951   7.260   6.706   0.400
 4643W        W11952   5.424   1.123   6.594
 4644W        W11953   0.607   1.592   7.971
 4645W        W11954  10.934   1.657   8.732
 4646W        W11955  17.878   0.161   7.187
 4647W        W11956  14.500   5.192   8.729
 4648W        W11957   6.699   9.179   9.269
 4649W        W11958   6.673   3.990   0.724
 4650W        W11959   4.923   3.701   7.390
 4651W        W11960  14.357   5.664   8.755
 4652W        W11961  12.443   0.833   6.288
 4653W        W11962   6.507   2.165   0.670
 4654W        W11963  17.985   5.506   6.455
 4655W        W11964  17.910   1.735   0.265
 4656W        W11965   1.849   7.056   6.517
 4657W        W11966   8.527   4.441   8.435
 4658W        W11967  15.769   6.934   8.457
 4659W        W11968  10.211   5.144   6.708
 4660W        W11969   5.976   1.140   8.349
 4661W        W11970   4.760   4.960   8.215
 4662W        W11971  14.869   4.637   9.711
 4663W        W11972  15.229   4.497   0.461
 4664W        W11973  11.385   4.861   9.489
 4665W        W11974   8.588   8.724   7.867
 4666W        W11975   4.044   5.085   8.770
 4667W        W11976   9.849   9.293   0.185
 4668W        W11977  11.841   5.446   6.016
 4669W        W11978   9.159   3.630   8.571
 4670W        W11979  10.695   2.032   6.292
 4671W        W11980   6.616   6.115   9.495
 4672W        W11981   7.212   5.070   6.192
 4673W        W11982  13.802   2.576   9.916
 4674W        W11983   3.403   6.801   9.393
 4675W        W11984   5.578   3.845   9.965
 4676W        W11985  13.064   4.173   7.084
 4677W        W11986  15.134   0.427   8.464
 4678W        W11987  12.484   6.022   7.765
 4679W        W11988  12.859   9.533   9.039
 4680W        W11989   9.685   6.402   9.791
 4681W        W11990  13.348   5.344   0.449
 4682W        W11991   4.887   3.465   0.277
 4683W        W11992   1.598   5.385   8.441
 4684W        W11993  16.907   6.795   9.963
 4685W        W11994   8.580   7.531   8.444
 4686W        W11995  16.404   1.879   0.799
 4687W        W11996   9.781   1.372   9.713
 4688W        W11997  13.089   8.151   6.878
 4689W        W11998  10.185   9.371   8.430
 4690W        W11999   4.267   9.657   7.366
 4691W        W12000  12.930   3.218   0.665
 4692W        W12001  15.671   0.337   8.383
 4693W        W12002   8.694   4.630   9.740
 4694W        W12003   9.481   7.283   8.508
 4695W        W12004   1.854   7.538   8.890
 4696W        W12005  15.940   4.232   9.947
 4697W        W12006   4.854   6.270   9.275
 4698W        W12007  11.078   3.663   7.980
 4699W        W12008   3.052   0.091   0.748
 4700W        W12009   9.408   5.071   6.109
 4701W        W12010  19.221   1.732   7.468
 4702W        W12011   9.678   7.914   9.126
 4703W        W12012  17.904   0.819   9.187
 4704W        W12013  12.393   0.179   6.200
 4705W        W12014  18.714   4.989   6.521
 4706W        W12015  12.480   3.101   9.920
 4707W        W12016  13.028   3.613   8.853
 4708W        W12017  13.909   3.666   8.254
 4709W        W12018  18.216   2.137   9.752
 4710W        W12019  12.863   7.370   9.898
 4711W        W12020   8.095   5.225   0.592
 4712W        W12021  18.646   5.337   9.207
 4713W        W12022  14.983   9.186   0.843
 4714W        W12023  17.780   7.998   0.389
 4715W        W12024  17.665   3.472   9.403
 4716W        W12025  14.191   3.362   7.412
 4717W        W12026  17.353   2.153   9.214
 4718W        W12027  15.855   3.200   6.898
 4719W        W12028  17.386   9.952   9.381
 4720W        W12029   3.066   8.856   5.971
 4721W        W12030   9.699   8.150   8.283
 4722W        W12031  12.016   8.302   8.120
 4723W        W12032   9.099   3.247   8.899
 4724W        W12033   2.714   3.744   8.777
 4725W        W12034   0.831   2.076   0.654
 4726W        W12035   7.020   9.816   9.840
 4727W        W12036   2.770   4.565   7.225
 4728W        W12037   0.517   1.737   9.424
 4729W        W12038   1.052   2.405   8.866
 4730W        W12039  17.381   1.637   7.371
 4731W        W12040  10.886   5.926   9.376
 4732W        W12041   1.752   3.935   8.245
 4733W        W12042   9.519   6.817   0.433
 4734W        W12043  17.950   8.846   0.456
 4735W        W12044  17.145   6.843   9.112
 4736W        W12045   1.043   6.468   0.207
 4737W        W12046  11.210   4.873   9.988
 4738W        W12047  16.508   0.111   7.715
 4739W        W12048  11.049   8.382   8.533
 4740W        W12049   0.731   3.630   9.213
 4741W        W12050  19.106   3.941   9.702
 4742W        W12051  17.357   1.695   8.971
 4743W        W12052   2.254   6.547   9.741
 4744W        W12053  10.983   4.038   7.648
 4745W        W12054  14.969   0.185   7.234
 4746W        W12055  16.048   8.334   6.624
 4747W        W12056  19.390   2.587   6.696
 4748W        W12057   1.379   7.940   0.210
 4749W        W12058  19.778   9.490   0.713
 4750W        W12059   2.423   9.913   9.517
 4751W        W12060   2.164   3.295   9.408
 4752W        W12061   8.056   6.573   0.373
 4753W        W12062  14.558   7.093   8.679
 4754W        W12063  14.038   0.713   9.509
 4755W        W12064   0.870   8.541   8.854
 4756W        W12065  16.859   9.080   0.593
 4757W        W12066   7.501   8.373   0.937
 4758W        W12067   1.869   6.962   7.595
 4759W        W12068  15.510   3.830   0.983
 4760W        W12069  11.793   7.364   0.865
 4761W        W12070   0.397   2.720   6.046
 4762W        W12071  15.424   3.178   6.614
 4763W        W12072   2.741   7.417   7.959
 4764W        W12073  10.815   4.995   0.359
 4765W        W12074   9.479   0.467   8.909
 4766W        W12075  19.690   2.648   8.640
 4767W        W12076   3.183   7.894   8.794
 4768W        W12077   9.736   7.917   0.274
 4769W        W12078   5.257   9.738   7.211
 4770W        W12079   6.446   5.404   6.110
 4771W        W12080   7.230   1.731   0.391
 4772W        W12081  15.105   4.467   8.235
 4773W        W12082   4.624   0.099   9.049
 4774W        W12083  18.849   1.657   6.643
 4775W        W12084  16.759   1.292   6.254
 4776W        W12085   8.229   4.028   7.559
 4777W        W12086   0.603   7.425   6.395
 4778W        W12087  17.672   9.003   0.022
 4779W        W12088  19.796   7.866   0.805
 4780W        W12089   4.247   1.815   6.815
 4781W        W12090   5.385   5.284   7.380
 4782W        W12091   6.876   5.335   7.063
 4783W        W12092   5.586   2.576   7.220
 4784W        W12093  11.832   4.123   6.368
 4785W        W12094  15.124   8.701   0.762
 4786W        W12095   8.031   6.986   7.900
 4787W        W12096   0.729   5.815   7.413
 4788W        W12097   3.574   3.644   8.311
 4789W        W12098   9.050   0.764   9.657
 4790W        W12099  13.057   9.828   7.351
 4791W        W12100  13.548   7.151   0.150
 4792W        W12101  18.324   7.546   9.376
 4793W        W12102  10.863   4.137   8.205
 4794W        W12103  13.151   1.143   7.214
 4795W        W12104  19.896   1.318   6.462
 4796W        W12105  14.873   5.663   8.741
 4797W        W12106  14.303   9.826   9.722
 4798W        W12107  13.852   4.511   7.094
 4799W        W12108   3.913   2.881   0.730
 4800W        W12109   0.185   0.688   8.556
 4801W        W12110  11.983   9.542   8.544
 4802W        W12111   9.797   9.588   9.752
 4803W        W12112   0.386   6.230   7.494
 4804W        W12113   7.733   3.631   8.828
 4805W        W12114  11.925   6.360   9.288
 4806W        W12115  19.380   5.894   0.344
 4807W        W12116   5.716   5.996   6.542
 4808W        W12117  17.938   8.236   8.955
 4809W        W12118   2.452   8.414   9.685
 4810W        W12119   6.108   2.774   7.987
 4811W        W12120   4.619   9.387   5.716
 4812W        W12121  16.048   7.368   9.656
 4813W        W12122   2.422   2.201   8.486
 4814W        W12123  16.948   2.022   7.891
 4815W        W12124  11.545   3.330   9.110
 4816W        W12125  19.400   3.882   6.692
 4817W        W12126   5.804   9.083   9.006
 4818W        W12127   9.408   0.247   6.075
 4819W        W12128   5.062   6.537   0.404
 4820W        W12129   1.159   1.192   6.326
 4821W        W12130  16.843   9.397   6.146
 4822W        W12131   5.977   4.978   7.959
 4823W        W12132  18.602   8.933   7.817
 4824W        W12133  19.539   5.993   5.923
 4825W        W12134   3.289   4.528   9.831
 4826W        W12135   3.272   9.685   0.991
 4827W        W12136   6.985   3.438   8.301
 4828W        W12137   7.496   9.283   6.366
 4829W        W12138   8.533   8.378   6.778
 4830W        W12139  18.725   5.871   7.373
 4831W        W12140   9.041   7.382   8.253
 4832W        W12141  11.079   2.827   8.570
 4833W        W12142   0.573   3.141   9.283
 4834W        W12143   2.248   5.898   9.982
 4835W        W12144   3.976   0.149   7.470
 4836W        W12145  19.108   5.755   6.135
 4837W        W12146  17.439   4.439   8.418
 4838W        W12147   2.798   8.760   0.137
 4839W        W12148   8.974   7.743   9.626
 4840W        W12149  12.477   8.283   8.893
 4841W        W12150  18.851   6.080   9.645
 4842W        W12151  16.921   1.253   1.014
 4843W        W12152  10.749   6.577   9.988
 4844W        W12153  12.249   8.801   0.416
 4845W        W12154   2.390   0.247   9.118
 4846W        W12155  14.132   1.134   0.242
 4847W        W12156  18.620   9.361   0.337
 4848W        W12157   1.542   3.124   0.398
 4849W        W12158  14.311   9.766   0.233
 4850W        W12159  14.326   4.631   7.001
 4851W        W12160   4.898   5.131   6.541
 4852W        W12161  12.826   4.954   0.569
 4853W        W12162  13.153   1.727   7.999
 4854W        W12163   7.544   6.985   0.069
 4855W        W12164  13.707   2.004   0.697
 4856W        W12165   6.008   3.571   9.823
 4857W        W12166   4.816   5.485   9.868
 4858W        W12167   3.508   6.365   6.232
 4859W        W12168   2.763   1.861   7.454
 4860W        W12169   7.658   2.492   6.195
 4861W        W12170  15.903   5.315   7.896
 4862W        W12171  19.880   7.672   7.785
 4863W        W12172  11.804   2.103   9.268
 4864W        W12173   2.793   1.216   7.874
 4865W        W12174  19.149   9.144   0.405
 4866W        W12175  10.259   8.211   8.948
 4867W        W12176   8.393   0.613   0.372
 4868W        W12177   0.719   1.957   8.956
 4869W        W12178  18.388   0.212   7.271
 4870W        W12179   0.864   4.927   0.659
 4871W        W12180   3.702   8.011   8.800
 4872W        W12181  18.745   2.651   0.269
 4873W        W12182   9.225   9.511   7.899
 4874W        W12183   7.283   7.546   8.350
 4875W        W12184  10.929   2.001   7.045
 4876W        W12185   2.829   3.286   8.058
 4877W        W12186  19.959   5.884   6.742
 4878W        W12187   4.261   5.525   0.777
 4879W        W12188  19.157   8.066   6.826
 4880W        W12189  16.507   5.942   9.983
 4881W        W12190   9.500   6.756   6.435
 4882W        W12191  16.553   5.030   0.010
 4883W        W12192   9.974   4.904   7.692
 4884W        W12193   7.836   9.599   6.675
 4885W        W12194   8.791   3.029   9.244
 4886W        W12195  19.139   6.039   8.815
 4887W        W12196  18.551   4.673   7.868
 4888W        W12197   3.282   8.958   9.392
 4889W        W12198  16.303   4.448   6.303
 4890W        W12199   8.473   9.148   6.182
 4891W        W12200  15.702   8.276   7.440
 4892W        W12201  13.606   2.085   0.033
 4893W        W12202   7.070   7.068   7.688
 4894W        W12203  13.034   6.053   9.795
 4895W        W12204  17.772   1.290   0.019
 4896W        W12205  10.038   4.558   9.376
 4897W        W12206  18.289   2.658   0.521
 4898W        W12207   0.984   7.041   7.481
 4899W        W12208  15.236   6.648   7.730
 4900W        W12209  11.424   5.075   6.658
 4901W        W12210  11.838   6.935   0.582
 4902W        W12211  10.996   1.674   9.239
 4903W        W12212  18.407   1.885   0.969
 4904W        W12213   4.695   2.569   7.327
 4905W        W12214  11.964   2.371   8.477
 4906W        W12215  13.588   7.271   9.307
 4907W        W12216   1.484   2.097   9.377
 4908W        W12217   0.117   6.317   8.561
 4909W        W12218  16.182   1.866   6.620
 4910W        W12219  17.298   5.971   7.049
 4911W        W12220  16.292   5.605   8.970
 4912W        W12221  10.628   9.173   9.735
 4913W        W12222   2.977   3.063   9.321
 4914W        W12223  10.562   6.591   9.507
 4915W        W12224   4.856   5.534   0.791
 4916W        W12225   4.389   3.926   0.865
 4917W        W12226   3.803   4.595   9.828
 4918W        W12227   7.818   5.370   7.633
 4919W        W12228  15.199   9.135   7.327
 4920W        W12229   7.249   9.806   8.438
 4921W        W12230   6.972   7.555   7.547
 4922W        W12231  12.554   6.376   0.904
 4923W        W12232   4.570   9.137   0.547
 4924W        W12233  13.525   5.517   8.310
 4925W        W12234   9.230   3.562   7.716
 4926W        W12235  16.269   3.987   8.682
 4927W        W12236   8.941   5.089   9.749
 4928W        W12237   1.834   6.494   7.283
 4929W        W12238   8.820   8.839   8.355
 4930W        W12239  11.482   3.090   8.383
 4931W        W12240  10.093   1.759   9.722
 4932W        W12241  19.119   5.994   6.595
 4933W        W12242   0.803   2.631   8.464
 4934W        W12243   6.201   5.456   8.027
 4935W        W12244  16.316   8.944   6.335
 4936W        W12245  18.349   6.400   0.866
 4937W        W12246  16.635   8.121   8.669
 4938W        W12247  16.133   0.983   0.706
 4939W        W12248   5.375   8.862   8.790
 4940W        W12249  10.733   5.555   9.690
 4941W        W12250  16.833   7.296   9.186
 4942W        W12251   1.192   2.657   6.369
 4943W        W12252   5.032   9.426   6.391
 4944W        W12253  14.542   9.399   9.953
 4945W        W12254  11.639   9.050   7.101
 4946W        W12255   1.310   6.092  10.000
 4947W        W12256  15.175   5.439   9.116
 4948W        W12257  19.923   7.792   0.286
 4949W        W12258  11.461   6.575   9.292
 4950W        W12259  16.371   5.336   8.139
 4951W        W12260  15.540   1.832   6.706
 4952W        W12261   6.741   4.508   0.664
 4953W        W12262   8.899   4.772   6.811
 4954W        W12263   2.536   2.078   9.332
 4955W        W12264   1.965   7.783   7.207
 4956W        W12265  14.480   2.099   0.025
 4957W        W12266  14.118   6.056   7.877
 4958W        W12267  11.134   3.972   9.505
 4959W        W12268   7.248   2.795   6.293
 4960W        W12269  16.233   1.745   7.455
 4961W        W12270   8.213   2.683   0.044
 4962W        W12271  17.232   0.652   5.897
 4963W        W12272   6.771   3.537   7.822
 4964W        W12273   6.280   8.361   8.763
 4965W        W12274   2.713   0.542   0.072
 4966W        W12275  14.303   6.641   0.613
 4967W        W12276  11.718   2.027   0.093
 4968W        W12277  18.544   2.376   1.074
 4969W        W12278  14.298   4.490   7.886
 4970W        W12279   8.841   9.566   6.646
 4971W        W12280  17.884   6.061   9.896
 4972W        W12281   8.610   7.067   8.205
 4973W        W12282  11.472   3.743   8.786
 4974W        W12283   2.217   9.665   8.473
 4975W        W12284   3.257   4.990   8.355
 4976W        W12285   7.094   3.826   0.960
 4977W        W12286   2.630   7.293   8.445
 4978W        W12287   9.019   2.279   6.227
 4979W        W12288  16.941   8.930   8.499
 4980W        W12289  18.727   3.145   7.907
 4981W        W12290  10.657   4.040   8.687
 4982W        W12291   1.636   8.297   8.432
 4983W        W12292   3.130   2.219   0.118
 4984W        W12293   4.860   6.717   6.190
 4985W        W12294  13.898   0.979   6.005
 4986W        W12295  11.422   5.554   6.837
 4987W        W12296   8.966   0.364   6.331
 4988W        W12297   3.617   7.109   6.601
 4989W        W12298  14.290   0.752   6.252
 4990W        W12299  10.410   0.225   8.074
 4991W        W12300  11.251   1.811   6.663
 4992W        W12301   9.811   4.583   7.268
 4993W        W12302  17.361   8.119   6.584
 4994W        W12303  10.019   2.121   0.085
 4995W        W12304   1.512   2.228   7.133
 4996W        W12305  15.410   2.606   8.506
 4997W        W12306   0.850   8.909   0.584
 4998W        W12307  18.739   7.897   6.253
 4999W        W12308  11.018   2.520   8.974
 5000W        W12309   0.145   4.911   0.662
 5001W        W12310  13.656   5.375   7.186
 5002W        W12311   5.586   0.594   9.168
 5003W        W12312   5.511   5.869   0.855
 5004W        W12313  15.900   3.527   8.687
 5005W        W12314  14.475   1.265   9.444
 5006W        W12315  15.565   2.103   8.539
 5007W        W12316  11.271   2.041   7.444
 5008W        W12317  19.453   7.258   7.413
 5009W        W12318  19.986   8.920   7.356
 5010W        W12319  14.331   9.504   6.842
 5011W        W12320   8.260   2.335   9.607
 5012W        W12321   9.570   1.991   7.060
 5013W        W12322   7.849   6.730   8.828
 5014W        W12323  19.975   6.430   9.108
 5015W        W12324  10.521   9.378   6.922
 5016W        W12325   1.561   2.766   8.885
 5017W        W12326   8.575   0.536   8.876
 5018W        W12327  10.679   6.893   7.150
 5019W        W12328   0.343   9.706   6.156
 5020W        W12329   0.226   5.889   8.293
 5021W        W12330   5.490   0.146   7.398
 5022W        W12331   7.870   5.880   9.713
 5023W        W12332  15.633   5.050   0.579
 5024W        W12333  14.293   0.572   0.830
 5025W        W12334   8.023   8.288   6.963
 5026W        W12335  11.544   8.816   6.094
 5027W        W12336  15.937   3.584   8.187
 5028W        W12337  16.873   5.007   6.364
 5029W        W12338   4.284   1.566   7.412
 5030W        W12339  18.913   0.433   6.284
 5031W        W12340   1.025   5.663   9.829
 5032W        W12341   8.287   7.376   9.887
 5033W        W12342  14.842   7.512   8.786
 5034W        W12343  10.659   2.852   8.305
 5035W        W12344  14.944   2.730   9.747
 5036W        W12345  14.806   2.861   6.574
 5037W        W12346   9.574   3.180   7.648
 5038W        W12347   3.260   4.592   7.058
 5039W        W12348  14.740   9.725   9.004
 5040W        W12349   8.498   4.951   7.067
 5041W        W12350  11.739   6.440   0.791
 5042W        W12351  19.895   2.535   6.769
 5043W        W12352   5.949   2.339   9.202
 5044W        W12353   3.259   5.910   0.273
 5045W        W12354  11.945   1.614   8.825
 5046W        W12355  16.311   4.626   9.072
 5047W        W12356   2.327   4.115   9.993
 5048W        W12357   3.479   1.514   7.876
 5049W        W12358   4.380   8.770   9.024
 5050W        W12359   9.724   5.932   8.298
 5051W        W12360  13.583   5.855   7.005
 5052W        W12361  13.487   6.662   0.134
 5053W        W12362   5.629   6.008   9.044
 5054W        W12363  17.868   9.132   8.485
 5055W        W12364   7.010   4.233   8.862
 5056W        W12365   3.193   7.307   8.272
 5057W        W12366   1.987   5.688   0.663
 5058W        W12367  12.706   4.417   1.304
 5059W        W12368  16.928   1.606   8.700
 5060W        W12369   8.700   8.927   0.184
 5061W        W12370   6.643   3.028   8.361
 5062W        W12371  16.768   3.117   6.954
 5063W        W12372  18.875   9.241   7.464
 5064W        W12373   9.101   6.412   9.326
 5065W        W12374  14.909   8.542   9.498
 5066W        W12375  12.651   2.318   8.895
 5067W        W12376  14.500   7.676   6.663
 5068W        W12377   9.102   0.110   8.977
 5069W        W12378   1.814   1.849   7.344
 5070W        W12379   3.418   5.044   6.398
 5071W        W12380   9.415   4.834   0.633
 5072W        W12381   2.394   7.800   9.280
 5073W        W12382   4.685   9.764   7.657
 5074W        W12383  19.824   6.853   9.352
 5075W        W12384   7.487   8.781   0.605
 5076W        W12385   3.247   5.775   6.321
 5077W        W12386  18.884   4.925   0.023
 5078W        W12387  10.033   2.896   7.281
 5079W        W12388   5.930   0.298   8.118
 5080W        W12389   9.132   5.889   0.349
 5081W        W12390  10.934   8.724   9.778
 5082W        W12391  10.064   1.834   8.797
 5083W        W12392  15.849   7.826   8.245
 5084W        W12393  17.559   0.384   8.696
 5085W        W12394  18.075   3.513   0.227
 5086W        W12395  15.841   0.751   7.343
 5087W        W12396  16.721   9.673   9.798
 5088W        W12397  13.583   7.897   9.711
 5089W        W12398   8.624   2.558   0.865
 5090W        W12399   2.794   9.657   0.619
 5091W        W12400   0.441   3.388   8.521
 5092W        W12401  14.472   6.286   6.189
 5093W        W12402   5.966   2.842   8.491
 5094W        W12403   0.890   6.162   9.711
 5095W        W12404  15.365   4.228   8.643
 5096W        W12405  15.955   9.447   0.457
 5097W        W12406   0.274   1.158   7.835
 5098W        W12407  12.419   7.995   9.303
 5099W        W12408   7.637   9.215   0.917
 5100W        W12409  19.184   8.278   0.280
 5101W        W12410   3.661   7.001   9.802
 5102W        W12411   7.489   7.903   9.971
 5103W        W12412   6.465   5.048   7.810
 5104W        W12413   5.221   3.155   8.311
 5105W        W12414  14.387   8.009   0.591
 5106W        W12415   8.029   2.647   7.474
 5107W        W12416  16.832   7.841   0.346
 5108W        W12417  10.033   1.633   0.225
 5109W        W12418  10.783   2.543   6.234
 5110W        W12419   6.682   7.869   8.066
 5111W        W12420   1.742   5.063   6.266
 5112W        W12421  12.059   8.579   8.813
 5113W        W12422   8.078   7.012   7.393
 5114W        W12423   6.899   4.504   7.396
 5115W        W12424   7.859   7.167   9.684
 5116W        W12425  15.006   1.797   8.053
 5117W        W12426  13.048   7.677   7.634
 5118W        W12427  11.976   3.355   7.669
 5119W        W12428   6.080   4.653   6.267
 5120W        W12429   2.745   9.711   7.410
 5121W        W12430   0.484   5.606   0.252
 5122W        W12431  14.223   4.524   5.842
 5123W        W12432   8.089   0.869   0.025
 5124W        W12433   6.364   4.167   6.254
 5125W        W12434  19.409   3.541   9.607
 5126W        W12435   0.757   3.036   7.546
 5127W        W12436  10.947   5.612   6.591
 5128W        W12437   0.431   3.622   8.067
 5129W        W12438   5.026   4.383   8.698
 5130W        W12439  14.546   5.532   6.644
 5131W        W12440   5.981   5.565   0.269
 5132W        W12441  10.996   9.371   7.210
 5133W        W12442  15.346   4.745   0.881
 5134W        W12443  16.740   3.673   6.233
 5135W        W12444   1.267   4.552   0.045
 5136W        W12445  19.155   8.263   8.314
 5137W        W12446  16.379   1.113   6.585
 5138W        W12447  16.300   3.127   7.183
 5139W        W12448   4.126   4.649   8.020
 5140W        W12449   1.736   9.837   6.495
 5141W        W12450   8.881   6.827   9.673
 5142W        W12451   4.179   8.665   0.360
 5143W        W12452  17.282   4.754   7.482
 5144W        W12453   0.083   1.507   9.661
 5145W        W12454   9.346   1.066   6.871
 5146W        W12455   9.938   6.976   0.171
 5147W        W12456   8.909   1.722   6.213
 5148W        W12457  15.341   5.462   0.453
 5149W        W12458   9.154   5.909   9.471
 5150W        W12459  11.669   4.107   9.859
 5151W        W12460   9.261   9.544   9.781
 5152W        W12461  15.109   3.705   6.571
 5153W        W12462   0.408   3.659   0.970
 5154W        W12463  16.707   8.095   9.568
 5155W        W12464  15.536   9.569   0.075
 5156W        W12465   1.930   8.456   9.670
 5157W        W12466   4.071   9.171   0.335
 5158W        W12467  19.316   9.108   9.928
 5159W        W12468   6.793   8.064   0.919
 5160W        W12469   5.774   0.464   7.649
 5161W        W12470   0.115   5.030   7.746
 5162W        W12471  12.520   1.185   0.829
 5163W        W12472  15.703   1.432   7.040
 5164W        W12473   7.387   4.051   9.672
 5165W        W12474  18.178   0.413   0.372
 5166W        W12475  14.055   6.870   0.010
 5167W        W12476   7.065   2.596   0.077
 5168W        W12477  13.893   5.564   9.641
 5169W        W12478  16.223   9.417   8.889
 5170W        W12479   9.707   8.501   6.212
 5171W        W12480  11.222   5.343   9.609
 5172W        W12481   8.366   9.687   0.769
 5173W        W12482   2.260   1.110   0.872
 5174W        W12483   7.744   8.303   7.840
 5175W        W12484   3.297   9.879   9.452
 5176W        W12485  16.392   3.548   7.939
 5177W        W12486  18.878   1.317   7.969
 5178W        W12487   1.137   7.185   0.036
 5179W        W12488   3.527   8.390   7.467
 5180W        W12489   1.908   2.750   7.339
 5181W        W12490   1.674   8.583   7.956
 5182W        W12491  11.115   7.922   8.792
 5183W        W12492   5.284   6.998   0.322
 5184W        W12493  12.612   6.676   0.252
 5185W        W12494   6.459   6.349   7.164
 5186W        W12495  13.366   4.416   7.577
 5187W        W12496   3.265   6.599   0.651
 5188W        W12497   0.803   0.840   9.294
 5189W        W12498   8.241   9.445   7.418
 5190W        W12499  16.926   0.815   6.251
 5191W        W12500  13.893   6.441   0.324
 5192W        W12501  18.865   1.757   6.146
 5193W        W12502   2.507   5.877   7.169
 5194W        W12503   3.331   9.716   7.441
 5195W        W12504  17.196   4.513   6.568
 5196W        W12505  19.471   9.886   6.689
 5197W        W12506  17.206   4.540   1.134
 5198W        W12507   6.004   9.491   8.767
 5199W        W12508   3.787   0.981   0.122
 5200W        W12509  12.739   3.020   8.653
 5201W        W12510  19.448   0.160   8.310
 5202W        W12511  12.550   1.122   7.824
 5203W        W12512   8.721   4.944   9.301
 5204W        W12513  15.625   8.809   7.402
 5205W        W12514  15.361   8.823   6.671
 5206W        W12515   5.421   3.601   9.107
 5207W        W12516   3.358   4.146   9.123
 5208W        W12517   1.856   7.559   9.746
 5209W        W12518  15.386   1.911   7.749
 5210W        W12519  10.100   1.285   8.861
 5211W        W12520   2.144   8.240   8.412
 5212W        W12521   7.140   7.928   7.848
 5213W        W12522  16.763   4.017   7.406
 5214W        W12523   6.205   0.881   6.984
 5215W        W12524  14.671   2.436   7.481
 5216W        W12525  14.970   7.018   8.963
 5217W        W12526   7.541   5.966   1.016
 5218W        W12527   9.591   3.799   9.993
 5219W        W12528  12.185   6.550   0.556
 5220W        W12529  16.531   9.351   6.567
 5221W        W12530   7.109   5.456   9.870
 5222W        W12531   5.818   2.559   0.625
 5223W        W12532  17.650   0.307   6.759
 5224W        W12533  12.234   2.091   7.482
 5225W        W12534   9.561   9.097   0.614
 5226W        W12535   8.793   1.712   8.312
 5227W        W12536  14.601   5.094   0.251
 5228W        W12537   9.380   8.079   6.949
 5229W        W12538  10.170   3.485   6.606
 5230W        W12539   0.995   0.272   9.684
 5231W        W12540   9.709   5.948   9.530
 5232W        W12541  15.989   7.058   6.720
 5233W        W12542  10.151   8.855   0.186
 5234W        W12543   1.079   0.766   8.449
 5235W        W12544  18.853   7.688   7.247
 5236W        W12545   3.371   5.428   8.091
 5237W        W12546   3.944   3.072   8.842
 5238W        W12547   2.157   0.100   6.716
 5239W        W12548  10.504   6.204   9.164
 5240W        W12549  13.706   3.539   1.107
 5241W        W12550   1.635   8.374   6.770
 5242W        W12551  11.226   2.773   9.903
 5243W        W12552   5.231   5.201   9.920
 5244W        W12553   3.170   3.592   0.013
 5245W        W12554  12.086   5.897   6.816
 5246W        W12555  14.517   2.926   9.394
 5247W        W12556  16.296   3.276   0.746
 5248W        W12557   9.232   5.986   7.204
 5249W        W12558  15.046   5.081   9.955
 5250W        W12559  13.380   9.640   9.200
 5251W        W12560  12.690   1.857   7.354
 5252W        W12561   3.934   5.935   9.512
 5253W        W12562  16.150   4.324   9.484
 5254W        W12563  18.843   3.072   9.984
 5255W        W12564  15.970   1.234   8.425
 5256W        W12565  10.535   4.264   6.834
 5257W        W12566  12.956   0.896   9.873
 5258W        W12567   1.812   7.201   8.058
 5259W        W12568  12.324   7.878   8.174
 5260W        W12569   6.262   7.380   7.033
 5261W        W12570  16.460   5.653   7.705
 5262W        W12571  11.029   3.729   8.496
 5263W        W12572  14.632   4.539   7.445
 5264W        W12573  11.790   4.127   8.937
 5265W        W12574  15.792   9.805   7.271
 5266W        W12575   4.969   5.313   8.540
 5267W        W12576  15.636   0.952   6.574
 5268W        W12577   2.773   9.112   9.273
 5269W        W12578   0.862   2.574   9.683
 5270W        W12579   8.006   9.950   0.460
 5271W        W12580  13.109   0.831   8.851
 5272W        W12581  13.457   4.214   6.750
 5273W        W12582   7.250   0.751   9.374
 5274W        W12583   4.736   3.270   0.768
 5275W        W12584  14.453   9.886   7.144
 5276W        W12585   6.623   8.745   0.587
 5277W        W12586  17.322   7.795   0.459
 5278W        W12587   3.114   9.122   1.245
 5279W        W12588  19.125   8.269   0.796
 5280W        W12589  17.681   6.886   9.243
 5281W        W12590   1.756   4.434   6.953
 5282W        W12591  17.315   1.223   7.675
 5283W        W12592  18.868   5.852   0.125
 5284W        W12593   1.591   9.196   7.132
 5285W        W12594   9.336   8.630   0.639
 5286W        W12595   6.018   4.453   7.271
 5287W        W12596   8.089   0.119   8.228
 5288W        W12597   1.199   7.085   0.529
 5289W        W12598  14.959   3.272   6.822
 5290W        W12599  15.609   0.747   0.170
 5291W        W12600   0.728   3.404   0.202
 5292W        W12601   8.876   2.194   0.244
 5293W        W12602   2.989   4.434   9.387
 5294W        W12603   4.255   9.491   8.504
 5295W        W12604  10.942   5.168   5.755
 5296W        W12605  10.116   9.159   9.764
 5297W        W12606   3.127   9.320   5.720
 5298W        W12607   6.727   1.428   7.354
 5299W        W12608  19.237   2.834   8.765
 5300W        W12609   9.644   0.527   7.440
 5301W        W12610   5.491   4.524   9.442
 5302W        W12611   8.689   3.666   7.709
 5303W        W12612   8.876   6.735   7.472
 5304W        W12613   0.865   9.602   8.052
 5305W        W12614  17.096   9.956   0.679
 5306W        W12615  14.302   6.410   0.027
 5307W        W12616   8.456   9.908   7.430
 5308W        W12617   3.974   5.965   0.867
 5309W        W12618  10.469   0.920   9.647
 5310W        W12619   4.994   7.474   8.987
 5311W        W12620   4.156   2.028   6.318
 5312W        W12621  12.302   5.722   8.970
 5313W        W12622  11.267   5.168   7.150
 5314W        W12623  17.872   8.070   8.162
 5315W        W12624  11.595   8.322   8.474
 5316W        W12625  12.254   4.268   8.693
 5317W        W12626  15.816   6.455   9.867
 5318W        W12627   9.033   6.787   6.704
 5319W        W12628   6.033   5.343   9.326
 5320W        W12629   7.150   4.923   7.227
 5321W        W12630   6.680   3.398   8.742
 5322W        W12631   1.287   5.259   6.461
 5323W        W12632  16.756   5.003   8.008
 5324W        W12633  17.359   5.760   0.554
 5325W        W12634   5.369   5.023   6.351
 5326W        W12635  18.117   7.182   8.032
 5327W        W12636  15.529   6.878   6.781
 5328W        W12637  11.713   3.646   0.085
 5329W        W12638  11.647   5.288   9.326
 5330W        W12639   3.687   1.050   7.794
 5331W        W12640  19.655   8.068   6.971
 5332W        W12641   7.926   1.710   7.361
 5333W        W12642   3.497   4.100   7.023
 5334W        W12643  11.548   6.494   9.809
 5335W        W12644  16.248   9.789   6.456
 5336W        W12645   8.650   5.504   9.772
 5337W        W12646   0.614   0.855   7.322
 5338W        W12647   4.949   1.842   6.317
 5339W        W12648   1.560   4.130   8.695
 5340W        W12649   1.909   1.723   0.194
 5341W        W12650   3.312   7.199   1.042
 5342W        W12651   4.690   7.479   7.351
 5343W        W12652   7.333   4.521   7.663
 5344W        W12653  19.402   7.777   9.313
 5345W        W12654   6.982   2.103   9.901
 5346W        W12655   3.759   9.029   6.701
 5347W        W12656   6.244   9.812   7.543
 5348W        W12657   7.750   2.633   0.280
 5349W        W12658   6.174   9.340   9.281
 5350W        W12659   2.615   8.259   0.303
 5351W        W12660   1.011   3.045   9.540
 5352W        W12661   4.988   2.931   9.050
 5353W        W12662  10.187   3.831   7.504
 5354W        W12663   2.429   4.122   8.979
 5355W        W12664   4.413   2.899   0.786
 5356W        W12665   6.158   4.832   6.938
 5357W        W12666  11.627   2.890   0.478
 5358W        W12667   1.906   1.019   7.312
 5359W        W12668   4.360   6.112   9.262
 5360W        W12669   4.984   6.916   0.742
 5361W        W12670  11.465   6.392   6.713
 5362W        W12671  15.126   3.049   8.559
 5363W        W12672   5.057   5.970   0.593
 5364W        W12673  10.742   3.275   9.149
 5365W        W12674   5.932   3.940   6.021
 5366W        W12675  19.878   6.150   1.060
 5367W        W12676   7.230   0.303   8.285
 5368W        W12677   4.318   0.756   9.435
 5369W        W12678   8.664   7.783   9.083
 5370W        W12679  19.069   8.725   9.644
 5371W        W12680   8.412   9.770   8.451
 5372W        W12681   5.314   8.586   7.915
 5373W        W12682  15.063   0.104   0.792
 5374W        W12683   4.593   2.191   8.002
 5375W        W12684  15.425   1.268   8.439
 5376W        W12685  14.604   9.721   6.153
 5377W        W12686  12.625   8.942   6.530
 5378W        W12687   9.289   8.775   7.063
 5379W        W12688  16.598   5.199   0.936
 5380W        W12689  12.955   1.273   8.080
 5381W        W12690  17.440   1.654   6.008
 5382W        W12691   3.546   6.352   8.559
 5383W        W12692   7.484   4.070   8.847
 5384W        W12693  19.909   9.553   9.863
 5385W        W12694   0.814   7.489   7.296
 5386W        W12695   2.953   8.350   8.729
 5387W        W12696   3.977   6.259   6.031
 5388W        W12697  11.759   0.674   0.720
 5389W        W12698  12.267   2.645   8.158
 5390W        W12699   6.918   4.538   8.473
 5391W        W12700   3.594   7.550   7.985
 5392W        W12701   8.961   8.330   7.093
 5393W        W12702   9.965   5.445   0.320
 5394W        W12703   8.567   0.038   8.869
 5395W        W12704  15.719   8.157   9.634
 5396W        W12705  12.674   1.119   8.903
 5397W        W12706   2.623   1.526   0.648
 5398W        W12707  18.266   5.765   0.601
 5399W        W12708   2.730   5.433   0.639
 5400W        W12709  14.484   8.886   7.731
 5401W        W12710  15.439   3.715   0.454
 5402W        W12711   0.808   0.388   6.518
 5403W        W12712  15.899   6.654   6.345
 5404W        W12713  17.205   9.580   0.159
 5405W        W12714   0.307   4.597   6.420
 5406W        W12715  11.491   8.868   8.827
 5407W        W12716   4.598   1.536   6.540
 5408W        W12717  12.973   1.756   8.882
 5409W        W12718   3.063   6.348   8.438
 5410W        W12719  16.989   2.009   7.355
 5411W        W12720  12.950   6.694   7.556
 5412W        W12721   2.764   5.064   8.266
 5413W        W12722   3.799   4.122   8.449
 5414W        W12723  11.815   7.862   8.208
 5415W        W12724  17.690   1.033   6.531
 5416W        W12725   7.240   4.720   8.123
 5417W        W12726   5.184   4.937   0.398
 5418W        W12727  17.722   2.795   6.163
 5419W        W12728   4.351   6.938   7.281
 5420W        W12729  16.297   9.780   8.029
 5421W        W12730  11.607   6.847   7.467
 5422W        W12731   3.334   3.369   6.604
 5423W        W12732   8.127   5.453   9.761
 5424W        W12733  10.347   4.989   8.213
 5425W        W12734   5.704   2.822   6.450
 5426W        W12735  16.667   6.912   8.909
 5427W        W12736   3.621   6.529   9.029
 5428W        W12737   9.316   2.187   7.450
 5429W        W12738  18.754   3.963   0.075
 5430W        W12739  18.073   9.003   6.386
 5431W        W12740  16.973   2.484   8.141
 5432W        W12741   0.789   8.026   0.350
 5433W        W12742   2.858   0.104   8.293
 5434W        W12743   5.981   1.082   9.783
 5435W        W12744   0.316   8.112   9.322
 5436W        W12745  11.473   6.223   8.066
 5437W        W12746   9.556   1.955   8.775
 5438W        W12747   7.491   3.216   7.957
 5439W        W12748   7.400   1.271   0.143
 5440W        W12749  19.803   5.975   0.038
 5441W        W12750   6.786   6.652   0.202
 5442W        W12751   8.423   4.469   7.272
 5443W        W12752  19.581   9.079   7.085
 5444W        W12753   0.593   5.068   7.932
 5445W        W12754   4.853   6.496   9.899
 5446W        W12755  11.471   8.085   7.787
 5447W        W12756  14.994   5.145   6.011
 5448W        W12757   5.363   3.599   8.563
 5449W        W12758  16.380   0.011   9.342
 5450W        W12759   1.528   1.274   9.704
 5451W        W12760  13.100   9.925   8.852
 5452W        W12761  10.650   9.873   6.730
 5453W        W12762   2.047   5.051   9.876
 5454W        W12763   4.624   8.002   0.147
 5455W        W12764  13.428   2.299   6.905
 5456W        W12765  12.318   7.799   0.637
 5457W        W12766   3.876   5.942   7.025
 5458W        W12767   6.874   8.344   7.976
 5459W        W12768   5.034   2.313   7.674
 5460W        W12769   3.986   2.485   6.129
 5461W        W12770  18.235   9.307   7.164
 5462W        W12771  17.769   3.248   6.384
 5463W        W12772   2.542   2.593   0.523
 5464W        W12773   3.441   5.077   6.900
 5465W        W12774   8.102   5.768   7.481
 5466W        W12775  17.912   6.603   0.682
 5467W        W12776  17.255   9.314   8.285
 5468W        W12777  19.842   2.284   7.949
 5469W        W12778  17.915   5.464   6.963
 5470W        W12779   3.774   8.774   7.168
 5471W        W12780   6.068   4.060   9.721
 5472W        W12781  14.944   7.494   0.518
 5473W        W12782   1.156   8.677   7.968
 5474W        W12783  13.103   2.189   9.750
 5475W        W12784   2.205   3.766   8.017
 5476W        W12785  18.141   9.596   0.558
 5477W        W12786  10.894   6.609   0.468
 5478W        W12787   8.995   0.413   8.584
 5479W        W12788  13.613   5.301   7.704
 5480W        W12789   1.495   0.310   5.970
 5481W        W12790  17.148   0.835   0.837
 5482W        W12791  18.436   0.716   6.469
 5483W        W12792   4.463   9.284   8.917
 5484W        W12793   1.779   9.677   7.020
 5485W        W12794   7.160   6.223   0.498
 5486W        W12795  16.000   8.576   7.714
 5487W        W12796  17.947   9.525   8.817
 5488W        W12797  16.067   0.825   9.300
 5489W        W12798   6.917   5.936   8.201
 5490W        W12799  10.666   6.583   7.877
 5491W        W12800  19.114   9.249   9.491
 5492W        W12801  18.263   4.227   7.153
 5493W        W12802  16.834   3.411   7.715
 5494W        W12803   3.828   2.313   7.499
 5495W        W12804   8.318   3.050   8.397
 5496W        W12805   3.514   6.843   7.026
 5497W        W12806   8.646   7.026   6.136
 5498W        W12807   8.907   8.223   8.886
 5499W        W12808   6.468   5.501   8.481
 5500W        W12809  15.334   3.999   8.184
 5501W        W12810   2.493   5.675   9.438
 5502W        W12811  12.231   8.299   0.643
 5503W        W12812  18.357   1.707   9.987
 5504W        W12813   0.148   2.091   6.866
 5505W        W12814   2.109   2.811   9.569
 5506W        W12815   9.526   5.005   7.413
 5507W        W12816   5.351   4.666   8.979
 5508W        W12817   8.662   6.475   9.070
 5509W        W12818  14.375   1.690   6.860
 5510W        W12819  13.459   9.200   8.398
 5511W        W12820  10.977   6.164   7.874
 5512W        W12821   9.583   1.870   0.106
 5513W        W12822  16.662   2.626   0.173
 5514W        W12823  11.882   5.510   7.101
 5515W        W12824   7.101   8.726   0.229
 5516W        W12825   7.299   3.500   0.135
 5517W        W12826   7.659   6.386   6.267
 5518W        W12827  10.842   0.285   6.362
 5519W        W12828  16.861   2.532   9.167
 5520W        W12829  18.090   4.461   0.248
 5521W        W12830   1.720   9.254   9.277
 5522W        W12831  12.465   0.188   9.424
 5523W        W12832  11.675   5.522   0.220
 5524W        W12833   9.375   5.952   0.816
 5525W        W12834  12.085   0.978   7.040
 5526W        W12835  12.940   4.522   7.854
 5527W        W12836   4.172   5.932   8.820
 5528W        W12837   2.947   4.205   8.837
 5529W        W12838  16.087   9.485   6.999
 5530W        W12839  13.016   3.617   9.362
 5531W        W12840   1.635   5.709   7.968
 5532W        W12841   0.070   3.007   8.643
 5533W        W12842  14.338   9.209   6.420
 5534W        W12843  17.314   9.093   0.352
 5535W        W12844   2.786   6.570   9.781
 5536W        W12845  14.118   2.092   6.617
 5537W        W12846  10.970   9.461   6.703
 5538W        W12847   7.975   1.328   0.822
 5539W        W12848   5.310   5.922   6.222
 5540W        W12849   2.798   2.546   9.248
 5541W        W12850  17.930   4.112   6.301
 5542W        W12851   5.235   7.405   7.251
 5543W        W12852  17.356   6.403   8.789
 5544W        W12853   0.792   1.000   7.826
 5545W        W12854   8.252   2.204   6.602
 5546W        W12855  10.105   0.496   7.666
 5547W        W12856  19.159   6.826   7.472
 5548W        W12857  18.871   3.509   9.608
 5549W        W12858  13.005   1.249   0.967
 5550W        W12859  11.141   9.201   9.612
 5551W        W12860   2.354   8.928   9.654
 5552W        W12861   0.211   8.970   7.817
 5553W        W12862   0.449   2.939   8.260
 5554W        W12863   6.112   5.150   8.816
 5555W        W12864  18.774   5.840   9.197
 5556W        W12865  15.288   9.794   1.123
 5557W        W12866  16.665   1.511   6.723
 5558W        W12867   5.979   6.572   6.562
 5559W        W12868   1.120   1.686   8.135
 5560W        W12869  19.893   6.766   6.912
 5561W        W12870  11.621   9.857   0.244
 5562W        W12871  17.084   1.648   6.442
 5563W        W12872  17.308   1.296   0.246
 5564W        W12873   1.119   5.555   8.474
 5565W        W12874  10.135   9.904   5.911
 5566W        W12875   7.022   0.788   7.992
 5567W        W12876  13.380   3.210   0.380
 5568W        W12877  15.060   2.114   0.273
 5569W        W12878  19.900   3.631   0.273
 5570W        W12879   9.517   9.079   7.849
 5571W        W12880   5.144   0.723   0.067
 5572W        W12881   6.237   9.754   7.010
 5573W        W12882   4.301   4.491   9.848
 5574W        W12883  17.691   9.912   7.588
 5575W        W12884   7.090   7.161   0.301
 5576W        W12885  18.622   3.556   6.363
 5577W        W12886   7.219   6.501   6.504
 5578W        W12887  10.479   6.434   8.315
 5579W        W12888   6.971   9.906   9.338
 5580W        W12889  11.231   8.953   0.137
 5581W        W12890   2.831   8.027   0.704
 5582W        W12891   2.210   3.054   8.020
 5583W        W12892   9.269   0.338   9.420
 5584W        W12893  17.032   7.802   9.860
 5585W        W12894   7.036   9.347   6.148
 5586W        W12895  13.798   5.961   8.330
 5587W        W12896   5.641   1.338   0.086
 5588W        W12897   7.433   5.877   8.470
 5589W        W12898   2.319   9.237   0.087
 5590W        W12899   4.319   9.932   0.981
 5591W        W12900  11.972   6.145   7.855
 5592W        W12901   7.903   6.653   9.880
 5593W        W12902   9.515   9.901   8.074
 5594W        W12903  16.079   6.787   8.965
 5595W        W12904   7.950   4.474   7.550
 5596W        W12905  11.670   0.449   8.163
 5597W        W12906  11.186   8.902   7.345
 5598W        W12907   5.778   6.032   5.937
 5599W        W12908   2.629   1.612   6.964
 5600W        W12909   9.407   2.823   8.868
 5601W        W12910  16.892   0.672   8.249
 5602W        W12911  15.430   1.934   1.177
 5603W        W12912  17.590   1.531   6.476
 5604W        W12913  15.320   8.143   7.115
 5605W        W12914   6.546   9.651   9.117
 5606W        W12915  11.431   9.277   7.581
 5607W        W12916  13.507   0.960   8.527
 5608W        W12917  11.995   0.463   9.416
 5609W        W12918   8.847   5.063   0.611
 5610W        W12919  16.510   0.361   1.119
 5611W        W12920   3.694   9.744   9.159
 5612W        W12921   4.606   9.791   9.844
 5613W        W12922   1.700   9.179   8.354
 5614W        W12923  11.598   2.990   6.149
 5615W        W12924  13.927   1.635   0.015
 5616W        W12925  10.988   2.814   0.749
 5617W        W12926   4.104   2.134   0.263
 5618W        W12927   6.233   9.650   0.491
 5619W        W12928  10.904   4.969   7.955
 5620W        W12929   7.885   1.310   0.263
 5621W        W12930   7.151   6.348   6.028
 5622W        W12931   8.735   1.352   7.720
 5623W        W12932  17.947   3.094   0.501
 5624W        W12933   0.199   7.695   6.179
 5625W        W12934   3.630   3.505   8.842
 5626W        W12935   8.572   4.312   6.251
 5627W        W12936   8.630   3.490   9.803
 5628W        W12937  11.866   7.434   0.359
 5629W        W12938  11.503   3.733   0.788
 5630W        W12939  17.769   7.790   8.618
 5631W        W12940  10.246   2.805   8.005
 5632W        W12941  11.759   1.722   6.638
 5633W        W12942  19.831   8.309   7.820
 5634W        W12943  12.118   8.738   7.817
 5635W        W12944   9.244   9.606   7.387
 5636W        W12945  18.444   8.837   0.254
 5637W        W12946   3.080   1.758   8.820
 5638W        W12947   0.265   1.129   6.787
 5639W        W12948  17.187   3.710   9.875
 5640W        W12949   9.175   9.569   0.515
 5641W        W12950   7.957   1.831   8.896
 5642W        W12951  17.445   4.877   6.291
 5643W        W12952   0.317   0.229   0.335
 5644W        W12953   9.472   1.767   9.605
 5645W        W12954   8.728   0.239   9.297
 5646W        W12955  16.366   9.489   9.405
 5647W        W12956   5.488   4.996   8.153
 5648W        W12957   3.961   0.628   7.850
 5649W        W12958  13.482   5.902   7.910
 5650W        W12959   4.801   2.501   0.330
 5651W        W12960   0.594   0.818   8.271
 5652W        W12961   4.169   6.334   6.481
 5653W        W12962   8.958   2.122   0.768
 5654W        W12963   5.092   1.494   6.726
 5655W        W12964  17.722   1.441   1.095
 5656W        W12965   5.425   5.055   9.475
 5657W        W12966   2.118   4.561   9.722
 5658W        W12967   2.326   0.600   0.422
 5659W        W12968  12.599   0.662   8.102
 5660W        W12969   3.014   1.766   7.912
 5661W        W12970   5.416   8.233   9.910
 5662W        W12971  17.784   2.701   0.778
 5663W        W12972  13.188   4.068   0.115
 5664W        W12973   6.797   3.431   0.206
 5665W        W12974   8.832   9.759   7.126
 5666W        W12975   3.876   6.786   8.674
 5667W        W12976   1.738   5.663   6.523
 5668W        W12977  17.114   5.608   8.464
 5669W        W12978   2.376   4.777   8.585
 5670W        W12979   7.996   9.437   0.547
 5671W        W12980  16.601   5.849   9.491
 5672W        W12981   8.956   7.838   7.288
 5673W        W12982   4.774   5.938   6.506
 5674W        W12983  14.892   8.926   9.848
 5675W        W12984   5.053   2.275   8.212
 5676W        W12985  17.006   4.598   5.611
 5677W        W12986   9.714   5.004   0.238
 5678W        W12987   0.671   9.946   8.383
 5679W        W12988   5.872   0.853   6.593
 5680W        W12989   8.032   8.982   7.459
 5681W        W12990  17.335   2.881   7.495
 5682W        W12991   1.777   7.942   6.521
 5683W        W12992  10.414   0.105   7.581
 5684W        W12993   7.288   2.601   0.537
 5685W        W12994   0.467   1.661   8.457
 5686W        W12995  10.545   2.600   0.609
 5687W        W12996   6.411   6.421   0.960
 5688W        W12997  14.660   8.042   9.568
 5689W        W12998  19.284   6.311   8.369
 5690W        W12999  15.510   4.220   9.681
 5691W        W13000   9.281   1.023   0.301
 5692W        W13001  13.828   3.151   0.102
 5693W        W13002  11.152   2.679   7.518
 5694W        W13003  17.828   0.856   8.672
 5695W        W13004   2.125   6.773   8.023
 5696W        W13005  14.569   7.595   0.825
 5697W        W13006   4.600   0.742   6.520
 5698W        W13007  16.874   0.691   7.068
 5699W        W13008  17.823   3.332   7.991
 5700W        W13009  10.724   8.903   9.307
 5701W        W13010   0.914   0.060   0.897
 5702W        W13011   7.936   4.578   0.233
 5703W        W13012  11.382   0.350   6.439
 5704W        W13013  13.225   6.096   6.184
 5705W        W13014   6.480   6.922   0.895
 5706W        W13015  18.999   2.905   6.823
 5707W        W13016  12.493   3.506   7.640
 5708W        W13017  15.755   6.145   9.452
 5709W        W13018   1.827   9.521   7.993
 5710W        W13019  17.376   2.139   8.690
 5711W        W13020   6.766   6.733   7.422
 5712W        W13021   8.000   6.210   0.712
 5713W        W13022   8.903   1.324   9.902
 5714W        W13023  11.572   7.418   8.361
 5715W        W13024   1.068   7.471   0.884
 5716W        W13025  19.509   3.738   8.838
 5717W        W13026  19.091   3.459   6.545
 5718W        W13027  12.656   1.309   9.951
 5719W        W13028  10.464   9.398   9.283
 5720W        W13029   8.666   7.312   9.544
 5721W        W13030  16.437   8.330   7.455
 5722W        W13031  18.059   4.374   8.976
 5723W        W13032   4.114   5.906   9.991
 5724W        W13033   2.131   4.188   7.713
 5725W        W13034   3.422   1.335   0.060
 5726W        W13035   0.621   2.997   9.896
 5727W        W13036  19.850   9.844   9.447
 5728W        W13037  15.155   6.987   6.410
 5729W        W13038   9.340   8.030   8.676
 5730W        W13039  10.588   4.769   6.698
 5731W        W13040  17.348   2.596   8.942
 5732W        W13041  12.586   5.992   7.247
 5733W        W13042  10.227   3.233   8.898
 5734W        W13043   1.815   6.200   9.904
 5735W        W13044  15.948   1.992   7.829
 5736W        W13045   7.473   5.897   0.023
 5737W        W13046   1.795   2.447   6.283
 5738W        W13047   2.133   6.623   0.636
 5739W        W13048  12.983   9.441   9.504
 5740W        W13049   9.016   7.958   0.280
 5741W        W13050   0.328   8.871   6.404
 5742W        W13051  13.061   3.669   0.907
 5743W        W13052  11.989   4.635   6.436
 5744W        W13053   7.483   9.281   6.871
 5745W        W13054   2.046   5.567   8.262
 5746W        W13055  16.268   0.455   9.620
 5747W        W13056   6.665   4.739   9.801
 5748W        W13057   5.794   0.615   7.156
 5749W        W13058  13.955   5.431   5.838
 5750W        W13059   1.166   9.222   0.874
 5751W        W13060   6.246   1.297   7.274
 5752W        W13061   5.026   1.378   9.017
 5753W        W13062   6.503   8.793   8.547
 5754W        W13063   2.341   6.875   8.469
 5755W        W13064   6.753   9.973   8.805
 5756W        W13065  10.062   4.369   6.094
 5757W        W13066  17.650   5.602   0.041
 5758W        W13067  16.003   7.350   7.459
 5759W        W13068   7.022   3.634   7.383
 5760W        W13069  18.336   5.248   6.150
 5761W        W13070   5.502   2.157  -0.002
 5762W        W13071  18.173   0.854   0.744
 5763W        W13072   5.256   6.021   6.792
 5764W        W13073  12.416   8.866   9.590
 5765W        W13074   7.633   5.030   6.477
 5766W        W13075   2.553   2.137   7.091
 5767W        W13076   4.798   6.371   0.795
 5768W        W13077   1.910   6.176   0.848
 5769W        W13078   5.726   7.901   7.677
 5770W        W13079   8.047   3.694   6.721
 5771W        W13080   5.096   5.682   7.624
 5772W        W13081   0.830   3.549   0.691
 5773W        W13082   8.503   1.525   9.642
 5774W        W13083  10.594   5.234   6.363
 5775W        W13084   7.567   8.916   0.070
 5776W        W13085  12.797   0.469   6.368
 5777W        W13086  17.443   1.731   0.514
 5778W        W13087   9.481   4.220   9.722
 5779W        W13088  16.208   8.876   8.158
 5780W        W13089  13.927   1.981   6.144
 5781W        W13090   3.394   2.112   7.335
 5782W        W13091   1.306   4.412   0.906
 5783W        W13092   1.092   0.707   7.088
 5784W        W13093  13.883   2.277   7.886
 5785W        W13094   7.312   0.393   7.797
 5786W        W13095   5.356   2.950   5.950
 5787W        W13096  13.065   6.925   0.261
 5788W        W13097  13.495   9.653   8.668
 5789W        W13098  19.879   4.712   8.705
 5790W        W13099  15.015   4.120   6.852
 5791W        W13100  15.572   5.868   6.723
 5792W        W13101  15.342   5.403   6.997
 5793W        W13102  11.032   2.274   6.599
 5794W        W13103   3.717   8.769   0.168
 5795W        W13104   9.291   1.736   8.386
 5796W        W13105   7.533   0.201   0.907
 5797W        W13106  11.106   7.930   7.349
 5798W        W13107   1.380   4.865   0.618
 5799W        W13108   2.218   0.712   9.925
 5800W        W13109   7.207   8.876   6.399
 5801W        W13110   1.021   1.147   9.658
 5802W        W13111  14.044   7.983   8.882
 5803W        W13112  15.997   6.622   9.426
 5804W        W13113   8.753   9.864   0.492
 5805W        W13114  13.163   1.771   9.370
 5806W        W13115   4.272   8.588   8.288
 5807W        W13116  18.035   9.055   7.567
 5808W        W13117  10.414   2.167   9.733
 5809W        W13118  15.073   7.605   9.257
 5810W        W13119  10.519   8.397   8.460
 5811W        W13120   8.955   4.202   9.719
 5812W        W13121  16.359   6.733   9.773
 5813W        W13122   5.037   2.788   9.524
 5814W        W13123   8.708   8.338   5.901
 5815W        W13124   3.136   3.701   8.044
 5816W        W13125  17.376   6.552   7.761
 5817W        W13126  11.896   0.259   6.378
 5818W        W13127  19.814   8.427   7.307
 5819W        W13128  12.607   7.128   6.829
 5820W        W13129  19.271   0.549   8.041
 5821W        W13130   5.154   4.858   8.546
 5822W        W13131  15.900   0.479   6.863
 5823W        W13132  15.937   2.708   7.622
 5824W        W13133  13.826   8.483   7.415
 5825W        W13134   5.851   0.878   8.832
 5826W        W13135  17.724   5.893   6.227
 5827W        W13136   0.532   2.395   8.795
 5828W        W13137   6.732   2.852   6.409
 5829W        W13138   6.672   5.699   9.805
 5830W        W13139  12.631   6.203   0.439
 5831W        W13140   7.769   7.403   8.177
 5832W        W13141  13.513   9.895   7.110
 5833W        W13142   7.855   1.045   6.741
 5834W        W13143  15.337   7.844   7.586
 5835W        W13144   0.386   0.234   8.757
 5836W        W13145  14.414   0.347   9.485
 5837W        W13146   6.346   5.303   7.041
 5838W        W13147   4.758   6.650   8.924
 5839W        W13148   4.363   8.999   6.746
 5840W        W13149   6.493   9.506   7.855
 5841W        W13150   9.403   7.732   8.243
 5842W        W13151  15.030   7.396   8.324
 5843W        W13152  19.764   0.858   7.229
 5844W        W13153   6.569   6.319   7.662
 5845W        W13154   0.630   8.987   8.736
 5846W        W13155  17.240   4.464   6.049
 5847W        W13156  18.734   6.962   6.583
 5848W        W13157   7.444   1.229   9.602
 5849W        W13158   0.352   1.100   9.180
 5850W        W13159  13.338   4.662   6.560
 5851W        W13160   2.789   0.080   9.867
 5852W        W13161   4.690   9.249   8.396
 5853W        W13162  15.974   4.109   0.431
 5854W        W13163  12.888   3.459   7.284
 5855W        W13164   7.803   8.668   8.384
 5856W        W13165   9.379   7.701   0.571
 5857W        W13166   1.303   3.363   0.836
 5858W        W13167  19.003   0.054   0.448
 5859W        W13168  13.749   1.716   6.555
 5860W        W13169  19.773   1.744   6.715
 5861W        W13170  15.618   8.880   0.814
 5862W        W13171  14.588   3.643   7.844
 5863W        W13172  12.678   5.174   8.327
 5864W        W13173   5.665   3.431   6.784
 5865W        W13174  19.897   3.572   7.262
 5866W        W13175   5.542   9.333   7.052
 5867W        W13176  17.915   6.136   9.384
 5868W        W13177   7.963   6.631   0.991
 5869W        W13178  11.160   2.974   9.138
 5870W        W13179  18.712   4.448   6.405
 5871W        W13180   3.074   0.933   0.798
 5872W        W13181   9.674   5.498   0.749
 5873W        W13182   0.609   8.534   9.317
 5874W        W13183  19.919   0.419   6.353
 5875W        W13184   7.527   9.878   9.746
 5876W        W13185   7.285   6.410   1.198
 5877W        W13186  17.908   0.761   9.716
 5878W        W13187  19.966   0.415   0.666
 5879W        W13188  10.547   1.626   0.584
 5880W        W13189   6.598   7.741   7.218
 5881W        W13190   5.956   5.499   8.460
 5882W        W13191  15.901   3.678   0.660
 5883W        W13192   0.219   1.172   8.361
 5884W        W13193  15.346   7.358   8.887
 5885W        W13194   1.637   1.730   0.689
 5886W        W13195  19.091   7.846   8.906
 5887W        W13196  18.932   8.619   7.475
 5888W        W13197  14.932   3.554   9.227
 5889W        W13198  15.926   4.893   8.839
 5890W        W13199  16.242   8.380   8.853
 5891W        W13200   7.501   5.833   6.830
 5892W        W13201   6.879   0.423   8.616
 5893W        W13202  16.582   3.127   8.666
 5894W        W13203   8.830   1.056   6.848
 5895W        W13204  11.935   8.477   7.137
 5896W        W13205  10.394   2.939   9.299
 5897W        W13206   0.163   2.522   8.404
 5898W        W13207   6.486   6.003   8.481
 5899W        W13208   7.266   0.397   6.215
 5900W        W13209  17.731   0.906   8.173
 5901W        W13210  18.602   6.544   9.576
 5902W        W13211   8.401   9.012   6.663
 5903W        W13212  18.407   8.033   8.847
 5904W        W13213   8.423   0.113   0.161
 5905W        W13214   6.069   8.423   9.234
 5906W        W13215   0.073   7.446   6.616
 5907W        W13216   6.883   8.078   5.827
 5908W        W13217   9.600   4.167   6.246
 5909W        W13218   0.424   6.843   8.156
 5910W        W13219   0.071   5.380   0.421
 5911W        W13220  16.111   5.415   6.132
 5912W        W13221  15.525   3.007   9.405
 5913W        W13222   7.439   4.362   9.259
 5914W        W13223  18.667   2.187   9.490
 5915W        W13224   2.695   3.735   7.772
 5916W        W13225  18.297   4.365   6.082
 5917W        W13226   6.521   6.956   9.394
 5918W        W13227   5.158   7.208   9.420
 5919W        W13228   3.140   0.594   7.458
 5920W        W13229  16.956   8.382   6.201
 5921W        W13230  15.471   0.983   7.048
 5922W        W13231   8.355   1.157   9.302
 5923W        W13232   0.687   9.391   0.770
 5924W        W13233   2.121   2.029   6.209
 5925W        W13234   1.771   9.951   0.236
 5926W        W13235  19.986   1.007   9.767
 5927W        W13236  14.392   5.616   7.912
 5928W        W13237  18.689   0.341   6.761
 5929W        W13238  18.847   9.250   0.802
 5930W        W13239   5.161   3.898   0.260
 5931W        W13240   5.974   0.794   7.961
 5932W        W13241  16.916   8.358   6.732
 5933W        W13242   9.089   2.079   7.899
 5934W        W13243  13.095   0.485   0.570
 5935W        W13244   3.187   6.829   8.019
 5936W        W13245   1.286   9.741   0.161
 5937W        W13246   4.053   9.253   7.078
 5938W        W13247  12.104   2.579   1.039
 5939W        W13248   4.592   6.693   7.670
 5940W        W13249  16.871   0.364   7.464
 5941W        W13250   8.550   2.646   7.469
 5942W        W13251   6.054   9.033   8.537
 5943W        W13252   2.586   2.965   8.363
 5944W        W13253  13.931   9.739   8.423
 5945W        W13254  13.691   5.920   6.492
 5946W        W13255  19.705   4.261   8.930
 5947W        W13256  12.132   6.087   0.789
 5948W        W13257  12.979   5.591   8.378
 5949W        W13258   4.379   1.815   8.726
 5950W        W13259   0.068   8.560   9.267
 5951W        W13260  11.330   6.828   6.389
 5952W        W13261   3.467   6.253   8.046
 5953W        W13262  13.313   4.255   6.234
 5954W        W13263   6.402   0.020   6.217
 5955W        W13264   7.637   2.768   6.624
 5956W        W13265  19.682   7.811   6.105
 5957W        W13266  10.119   0.682   6.137
 5958W        W13267   7.393   0.490   8.847
 5959W        W13268  19.163   1.073   9.700
 5960W        W13269   7.642   9.710   0.776
 5961W        W13270  14.093   4.038   9.081
 5962W        W13271  13.060   2.425   6.554
 5963W        W13272   0.349   5.402   6.837
 5964W        W13273  12.764   8.207   9.975
 5965W        W13274   0.487   7.903   6.576
 5966W        W13275  19.484   0.112   9.714
 5967W        W13276   0.760   5.735   6.897
 5968W        W13277   3.285   9.236   8.331
 5969W        W13278   9.038   7.400   9.217
 5970W        W13279   0.752   1.195   0.115
 5971W        W13280  10.609   8.396   6.295
 5972W        W13281  14.357   6.777   6.119
 5973W        W13282  19.517   1.239   9.037
 5974W        W13283  10.855   2.948   9.566
 5975W        W13284   2.977   1.337   0.323
 5976W        W13285  16.242   8.998   6.853
 5977W        W13286  10.622   1.025   7.946
 5978W        W13287  15.451   0.112   7.521
 5979W        W13288   1.850   8.828   6.516
 5980W        W13289  12.784   6.763   5.912
 5981W        W13290   2.464   1.264   6.614
 5982W        W13291   3.738   1.274   8.283
 5983W        W13292   5.258   7.697   9.385
 5984W        W13293  19.419   5.074   9.304
 5985W        W13294   3.225   8.029   6.549
 5986W        W13295   9.380   9.649   8.511
 5987W        W13296   7.279   5.478   5.884
 5988W        W13297   8.480   9.762   9.298
 5989W        W13298  11.052   5.364   0.074
 5990W        W13299  15.066   4.146   9.441
 5991W        W13300  19.948   3.816   1.189
 5992W        W13301   9.546   9.726   9.318
 5993W        W13302  15.022   2.798   7.581
 5994W        W13303   8.580   2.546   6.405
 5995W        W13304  12.258   2.933   6.879
 5996W        W13305   1.549   1.582   9.294
 5997W        W13306  17.155   9.805   6.200
 5998W        W13307   5.826   5.197   6.732
 5999W        W13308   8.049   5.012   6.778
 6000W        W13309  11.815   0.159   7.784
 6001W        W13310  13.882   6.811   9.247
 6002W        W13311   1.224   4.505   8.003
 6003W        W13312  19.659   2.724   0.212
 6004W        W13313  11.102   7.466   8.100
 6005W        W13314   7.245   8.382   7.629
 6006W        W13315  16.464   1.352   0.795
 6007W        W13316   9.418   2.732   7.406
 6008W        W13317  16.813   3.904   8.852
 6009W        W13318  16.309   4.409   6.832
 6010W        W13319  10.455   7.783   9.737
 6011W        W13320   3.221   4.668   8.992
 6012W        W13321   1.089   8.038   9.801
 6013W        W13322  14.957   8.528   0.290
 6014W        W13323  16.872   5.817   0.330
 6015W        W13324   4.545   4.546   9.379
 6016W        W13325   6.362   3.970   9.332
 6017W        W13326  18.314   7.761   1.056
 6018W        W13327  15.894   6.899   7.219
 6019W        W13328  10.981   5.626   8.096
 6020W        W13329  13.635   4.043   0.387
 6021W        W13330  19.173   5.301   8.242
 6022W        W13331  19.130   8.949   7.832
 6023W        W13332   9.947   3.651   9.051
 6024W        W13333  16.665   7.809   0.836
 6025W        W13334   9.035   0.646   9.083
 6026W        W13335   6.303   8.452   7.831
 6027W        W13336  19.863   7.824   8.287
 6028W        W13337  14.286   8.455   0.869
 6029W        W13338   6.450   0.466   7.209
 6030W        W13339  14.920   2.198   9.776
 6031W        W13340   2.164   1.615   9.193
 6032W        W13341  15.244   9.863   8.283
 6033W        W13342  14.417   6.141   0.449
 6034W        W13343  15.424   1.861   5.926
 6035W        W13344   3.105   7.144   6.730
 6036W        W13345   7.578   0.122   6.534
 6037W        W13346  18.044   3.128   1.428
 6038W        W13347  17.831   5.056   8.125
 6039W        W13348  18.601   3.012   6.508
 6040W        W13349  15.478   4.490   6.123
 6041W        W13350   7.455   3.422   9.203
 6042W        W13351   8.869   6.148   8.032
 6043W        W13352  11.365   6.742   0.602
 6044W        W13353   4.138   2.026   0.759
 6045W        W13354   6.482   9.298   6.855
 6046W        W13355  11.020   7.562   0.362
 6047W        W13356  10.240   4.798   6.325
 6048W        W13357  17.741   2.271   6.903
 6049W        W13358  17.909   9.971   0.280
 6050W        W13359  11.713   7.366   9.416
 6051W        W13360   1.039   6.158   7.617
 6052W        W13361   2.589   4.166   7.489
 6053W        W13362  11.843   6.806   6.311
 6054W        W13363  14.922   4.486   8.705
 6055W        W13364  11.956   7.229   6.629
 6056W        W13365  15.006   7.090   7.884
 6057W        W13366  10.777   5.786   0.160
 6058W        W13367  12.398   8.574   9.994
 6059W        W13368   3.331   1.194   9.038
 6060W        W13369   1.512   6.262   9.457
 6061W        W13370  19.899   2.546   7.298
 6062W        W13371  17.966   0.875   0.260
 6063W        W13372  18.641   8.454   8.452
 6064W        W13373   8.426   6.028   0.902
 6065W        W13374   4.164   7.429   7.454
 6066W        W13375  17.655   9.933   8.954
 6067W        W13376   8.916   5.228   6.589
 6068W        W13377   7.560   7.746   6.522
 6069W        W13378  11.369   0.016   8.020
 6070W        W13379  15.002   5.195   6.545
 6071W        W13380  11.408   2.503   0.701
 6072W        W13381  10.385   9.354   0.179
 6073W        W13382  15.771   0.192   8.870
 6074W        W13383  15.811   7.527   6.613
 6075W        W13384  19.739   1.411   0.054
 6076W        W13385  13.835   6.434   9.804
 6077W        W13386   3.653   2.122   0.019
 6078W        W13387  15.973   9.892   8.411
 6079W        W13388  17.749   6.338   7.022
 6080W        W13389   0.429   7.698   0.168
 6081W        W13390   1.445   4.947   9.234
 6082W        W13391  15.073   6.671   6.861
 6083W        W13392   3.124   8.231   8.221
 6084W        W13393  17.332   9.908   7.995
 6085W        W13394  17.756   4.063   0.698
 6086W        W13395   5.993   0.404   8.723
 6087W        W13396  11.951   6.335   6.514
 6088W        W13397   7.496   9.531   8.096
 6089W        W13398  11.038   0.729   6.500
 6090W        W13399  12.912   5.447   0.711
 6091W        W13400   6.173   3.537   6.923
 6092W        W13401   7.128   4.764   9.369
 6093W        W13402  11.601   3.078   6.895
 6094W        W13403  17.182   7.390   6.968
 6095W        W13404  10.315   3.775   9.785
 6096W        W13405  18.371   3.932   9.027
 6097W        W13406  13.850   4.947   9.130
 6098W        W13407  17.024   9.231   7.845
 6099W        W13408  13.237   4.954   0.079
 6100W        W13409  12.113   6.970   1.027
 6101W        W13410   1.243   2.603   6.882
 6102W        W13411  14.071   3.747   7.752
 6103W        W13412   7.437   2.118   9.653
 6104W        W13413  19.164   9.998   7.898
 6105W        W13414  17.866   4.393   9.792
 6106W        W13415   5.822   9.401   0.298
 6107W        W13416  17.497   5.410   6.373
 6108W        W13417   5.494   9.239   6.563
 6109W        W13418  13.854   8.385   9.218
 6110W        W13419   3.057   9.694   7.004
 6111W        W13420   4.209   0.607   7.414
 6112W        W13421  10.301   0.959   7.528
 6113W        W13422  19.306   5.793   8.260
 6114W        W13423  14.070   7.026   8.787
 6115W        W13424   9.389   6.356   0.255
 6116W        W13425  12.022   6.187   9.748
 6117W        W13426  16.332   4.836   8.272
 6118W        W13427  12.597   3.871   7.301
 6119W        W13428  17.308   8.760   6.084
 6120W        W13429  14.226   6.573   7.866
 6121W        W13430   2.895   1.992   8.378
 6122W        W13431  16.901   8.413   7.241
 6123W        W13432   4.285   3.890   6.458
 6124W        W13433  16.248   2.179   6.205
 6125W        W13434   7.569   3.029   7.064
 6126W        W13435   3.585   1.236   6.764
 6127W        W13436  17.973   9.986   8.552
 6128W        W13437  15.397   2.333   9.863
 6129W        W13438  13.526   5.134   8.738
 6130W        W13439  18.560   1.340   6.344
 6131W        W13440   3.009   4.104   8.332
 6132W        W13441  10.719   8.816   7.646
 6133W        W13442  18.227   6.759   8.292
 6134W        W13443   9.603   1.067   7.333
 6135W        W13444  17.506   3.008   0.192
 6136W        W13445   4.875   0.919   8.744
 6137W        W13446   3.820   0.723   9.218
 6138W        W13447  11.636   9.184   8.408
 6139W        W13448   9.729   3.185   9.048
 6140W        W13449  11.982   9.312   7.611
 6141W        W13450   4.602   0.716   8.337
 6142W        W13451  13.817   8.797   6.983
 6143W        W13452  16.259   9.658   7.484
 6144W        W13453   7.602   7.727   0.988
 6145W        W13454  15.561   7.401   8.417
 6146W        W13455  10.790   6.032   8.362
 6147W        W13456  14.643   8.561   8.967
 6148W        W13457  18.298   8.261   9.793
 6149W        W13458   2.684   3.567   0.169
 6150W        W13459  11.466   7.784   9.647
 6151W        W13460  19.438   5.612   8.721
 6152W        W13461   1.789   3.430   8.105
 6153W        W13462  11.315   4.851   5.878
 6154W        W13463   0.218   0.622   9.047
 6155W        W13464  14.755   9.307   7.099
 6156W        W13465  12.173   0.249   9.006
 6157W        W13466   7.967   4.154   7.989
 6158W        W13467  10.954   0.129   8.347
 6159W        W13468   4.251   1.137   6.705
 6160W        W13469  11.496   1.700   7.096
 6161W        W13470  18.665   5.965   6.807
 6162W        W13471   0.641   8.513   0.252
 6163W        W13472  16.469   2.150   9.136
 6164W        W13473  17.935   8.269   6.308
 6165W        W13474  10.969   3.169   7.686
 6166W        W13475   6.661   7.691   6.707
 6167W        W13476   1.138   8.908   9.642
 6168W        W13477  17.701   5.024   8.603
 6169W        W13478   7.520   5.380   8.430
 6170W        W13479   8.510   4.161   8.864
 6171W        W13480  19.411   0.119   8.834
 6172W        W13481  18.566   3.770   0.906
 6173W        W13482   1.318   9.729   6.743
 6174W        W13483   7.755   0.622   6.416
 6175W        W13484   9.476   5.119   9.800
 6176W        W13485   0.966   4.092   9.200
 6177W        W13486   9.828   2.965   8.593
 6178W        W13487  17.118   8.889   7.090
 6179W        W13488  15.952   9.485   9.745
 6180W        W13489  12.082   8.089   8.595
 6181W        W13490  13.499   3.622   0.646
 6182W        W13491  17.810   8.632   8.226
 6183W        W13492  11.254   0.650   0.746
 6184W        W13493   4.567   5.476   7.764
 6185W        W13494   4.685   4.677   6.617
 6186W        W13495   3.088   3.232   7.098
 6187W        W13496   5.829   4.502   8.847
 6188W        W13497   3.062   3.706   0.498
 6189W        W13498  17.399   0.025   0.282
 6190W        W13499  16.719   1.713   9.745
 6191W        W13500   4.275   8.043   0.524
 6192W        W13501  12.031   3.852   9.598
 6193W        W13502   4.103   9.912   9.458
 6194W        W13503  14.524   3.665   8.806
 6195W        W13504   3.435   0.608   7.886
 6196W        W13505   2.826   4.594   7.735
 6197W        W13506  11.925   2.990   9.176
 6198W        W13507   5.638   4.729   0.247
 6199W        W13508  10.087   9.374   6.634
 6200W        W13509  17.650   3.183   6.891
 6201W        W13510   7.976   4.659   6.394
 6202W        W13511  19.877   3.690   9.747
 6203W        W13512  11.289   3.792   6.661
 6204W        W13513  11.548   2.325   9.691
 6205W        W13514   8.167   4.920   9.260
 6206W        W13515   1.376   8.465   9.725
 6207W        W13516  15.504   9.276   6.411
 6208W        W13517  16.003   2.159   9.329
 6209W        W13518  15.276   0.323   7.977
 6210W        W13519   0.160   1.911   5.785
 6211W        W13520  16.379   7.355   6.604
 6212W        W13521   9.433   6.898   7.577
 6213W        W13522  14.343   6.573   8.720
 6214W        W13523   7.612   8.581   6.210
 6215W        W13524   1.253   8.343   7.574
 6216W        W13525   7.819   9.626   7.200
 6217W        W13526  15.555   1.742   0.709
 6218W        W13527   2.610   4.114   6.436
 6219W        W13528  13.672   6.365   7.026
 6220W        W13529  11.282   2.119   9.174
 6221W        W13530  19.030   4.588   7.702
 6222W        W13531   8.555   9.002   7.421
 6223W        W13532  18.313   9.389   6.661
 6224W        W13533  19.887   5.374   6.591
 6225W        W13534   7.779   2.103   8.363
 6226W        W13535  15.018   1.944   6.898
 6227W        W13536  10.109   7.908   9.375
 6228W        W13537   6.601   6.334   6.153
 6229W        W13538   2.696   9.187   0.414
 6230W        W13539  12.124   2.497   7.152
 6231W        W13540  13.077   1.313   9.588
 6232W        W13541   4.306   5.886   6.231
 6233W        W13542   6.173   9.859   9.472
 6234W        W13543   1.638  10.003   8.017
 6235W        W13544  16.833   7.372   0.159
 6236W        W13545  17.489   9.829   7.106
 6237W        W13546   0.403   6.551   6.946
 6238W        W13547   7.040   8.453   6.639
 6239W        W13548   3.003   4.987   7.428
 6240W        W13549   2.521   1.644   7.826
 6241W        W13550   0.230   5.422   8.051
 6242W        W13551   4.793   0.708   6.063
 6243W        W13552   5.189   0.922   9.179
 6244W        W13553   5.742   1.511   9.636
 6245W        W13554  18.666   3.129   8.457
 6246W        W13555  19.481   3.826   0.056
 6247W        W13556  15.588   2.879   8.912
 6248W        W13557  12.841   5.898   9.301
 6249W        W13558  19.774   4.300   6.277
 6250W        W13559  15.355   5.908   0.706
 6251W        W13560  10.879   1.517   6.883
 6252W        W13561   9.496   2.194   8.311
 6253W        W13562  19.168   4.221   7.039
 6254W        W13563   5.360   1.540   6.272
 6255W        W13564   7.990   6.790   9.362
 6256W        W13565   9.487   0.145   7.073
 6257W        W13566   8.512   5.975   0.363
 6258W        W13567  19.690   8.201   9.335
 6259W        W13568   0.735   4.430   6.666
 6260W        W13569   1.252   5.409   9.077
 6261W        W13570  19.444   4.420   8.485
 6262W        W13571  14.324   1.810   0.735
 6263W        W13572   7.591   1.991   7.082
 6264W        W13573   3.261   3.123   8.897
 6265W        W13574   0.098   2.963   9.182
 6266W        W13575   7.848   8.179   6.460
 6267W        W13576   6.612   8.474   6.365
 6268W        W13577  13.960   3.598   9.340
 6269W        W13578  15.828   4.013   7.942
 6270W        W13579   2.773   8.020   6.793
 6271W        W13580  16.019   6.001   7.011
 6272W        W13581   2.083   3.186   7.124
 6273W        W13582  10.450   3.108   0.666
 6274W        W13583  18.484   5.407   7.462
 6275W        W13584  14.153   6.370   9.178
 6276W        W13585  16.481   0.832   8.990
 6277W        W13586  13.987   3.644   8.776
 6278W        W13587  14.413   4.416   9.209
 6279W        W13588   5.135   3.245   7.259
 6280W        W13589  13.956   5.951   0.135
 6281W        W13590   1.631   6.034   7.437
 6282W        W13591  17.761   1.342   8.446
 6283W        W13592  19.356   3.200   5.953
 6284W        W13593   4.263   4.194   8.200
 6285W        W13594   4.973   1.251   0.720
 6286W        W13595   4.336   2.465   0.564
 6287W        W13596  15.444   7.995   9.219
 6288W        W13597   6.537   1.227   0.564
 6289W        W13598  12.053   3.011   0.729
 6290W        W13599  12.772   6.323   6.177
 6291W        W13600  12.442   2.849   7.368
 6292W        W13601  19.649   9.203   9.527
 6293W        W13602  13.913   1.064   8.191
 6294W        W13603   3.485   4.163   6.520
 6295W        W13604   2.744   9.586   8.272
 6296W        W13605   8.555   3.234   8.843
 6297W        W13606  19.217   1.502   9.956
 6298W        W13607  19.015   3.004   7.424
 6299W        W13608  19.915   3.735   8.070
 6300W        W13609  15.592   4.525   6.993
 6301W        W13610  17.275   0.778   7.935
 6302W        W13611  13.429   5.431   6.715
 6303W        W13612   0.112   5.880   7.784
 6304W        W13613  10.996   1.555   6.321
 6305W        W13614   7.715   7.499   9.085
 6306W        W13615   6.598   7.800   9.499
 6307W        W13616  17.801   6.390   6.500
 6308W        W13617   9.020   2.569   7.684
 6309W        W13618   4.844   8.279   7.032
 6310W        W13619   2.490   2.997   6.212
 6311W        W13620   8.453   1.664   7.401
 6312W        W13621  16.884   2.111   9.451
 6313W        W13622  10.215   8.594   6.031
 6314W        W13623  16.574   5.562   5.950
 6315W        W13624   7.001   5.512   8.482
 6316W        W13625   0.485   0.795   0.295
 6317W        W13626  11.261   5.796   0.336
 6318W        W13627  19.422   0.297   6.340
 6319W        W13628  16.305   8.959   9.481
 6320W        W13629  10.171   8.240   9.749
 6321W        W13630   3.563   5.425   9.361
 6322W        W13631  10.761   8.305   8.932
 6323W        W13632  15.296   3.197   0.572
 6324W        W13633   3.049   4.129   7.271
 6325W        W13634  11.349   3.933   7.149
 6326W        W13635   6.753   7.761   9.026
 6327W        W13636  12.969   7.881   8.967
 6328W        W13637   7.913   5.991   6.516
 6329W        W13638   9.755   6.009   6.399
 6330W        W13639   5.137   8.532   8.422
 6331W        W13640   3.762   1.050   8.796
 6332W        W13641  14.392   5.624   0.418
 6333W        W13642  17.978   6.862   8.743
 6334W        W13643  10.204   0.365   0.360
 6335W        W13644  10.651   8.291   7.948
 6336W        W13645   3.759   6.669   8.197
 6337W        W13646   3.864   1.003   6.363
 6338W        W13647   4.105   2.272   9.785
 6339W        W13648  16.968   3.185   9.902
 6340W        W13649   5.361   1.543   0.897
 6341W        W13650  12.931   3.169   0.146
 6342W        W13651   4.106   5.475   9.385
 6343W        W13652   8.198   7.632   8.845
 6344W        W13653  13.737   6.360   7.917
 6345W        W13654   8.632   1.233   6.386
 6346W        W13655  15.664   9.993   8.004
 6347W        W13656  17.808   2.333   6.361
 6348W        W13657   6.702   8.845   6.695
 6349W        W13658  17.436   8.108   9.068
 6350W        W13659   2.281   7.914   6.657
 6351W        W13660  16.800   6.310   0.170
 6352W        W13661   4.740   9.620   0.691
 6353W        W13662  13.055   6.365   9.285
 6354W        W13663  17.252   3.462   6.268
 6355W        W13664  10.398   1.994   7.630
 6356W        W13665   9.604   0.693   6.357
 6357W        W13666   5.858   1.436   6.364
 6358W        W13667   0.718   4.323   8.808
 6359W        W13668   6.969   6.272   7.341
 6360W        W13669   5.425   9.325   9.935
 6361W        W13670  12.296   7.049   9.382
 6362W        W13671   7.590   7.903   8.133
 6363W        W13672   4.323   3.336   7.866
 6364W        W13673   7.309   9.684   6.620
 6365W        W13674  12.721   8.583   0.373
 6366W        W13675  18.441   3.786   9.540
 6367W        W13676  16.114   0.679   0.281
 6368W        W13677   7.040   7.541   7.031
 6369W        W13678   6.424   4.612   8.574
 6370W        W13679  11.900   3.028   8.070
 6371W        W13680  18.030   7.622   0.643
 6372W        W13681   1.153   5.343   0.729
 6373W        W13682  19.620   2.157   6.990
 6374W        W13683  10.078   6.471   9.401
 6375W        W13684   9.420   6.841   9.899
 6376W        W13685  15.900   7.258   8.824
 6377W        W13686   5.041   3.894   8.801
 6378W        W13687  12.927   8.910   9.418
 6379W        W13688  13.931   6.888   7.558
 6380W        W13689   6.374   2.060   8.621
 6381W        W13690  16.079   3.079   8.878
 6382W        W13691   5.784   9.733   7.276
 6383W        W13692  11.314   0.261   0.436
 6384W        W13693  10.441   9.622   0.934
 6385W        W13694  15.011   4.022   0.445
 6386W        W13695   5.236   6.943   6.993
 6387W        W13696  18.938   3.487   8.256
 6388W        W13697  18.854   9.861   8.995
 6389W        W13698   3.784   9.717   7.686
 6390W        W13699   3.904   9.607   6.729
 6391W        W13700  16.140   7.562   7.010
 6392W        W13701   3.313   1.781   9.832
 6393W        W13702   6.951   2.198   0.400
 6394W        W13703  14.054   9.264   0.719
 6395W        W13704   8.003   7.808   6.802
 6396W        W13705  16.473   6.527   7.807
 6397W        W13706   0.313   9.802   9.131
 6398W        W13707   2.828   1.788   0.132
 6399W        W13708  11.086   6.358   9.612
 6400W        W13709   0.712   1.330   6.533
 6401W        W13710   5.407   2.480   6.733
 6402W        W13711   8.651   5.707   5.991
 6403W        W13712  10.487   1.645   9.027
 6404W        W13713  15.124   0.555   6.379
 6405W        W13714   4.736   3.116   7.552
 6406W        W13715  11.176   8.081   0.482
 6407W        W13716   2.761   7.090   6.309
 6408W        W13717   6.330   8.955   5.970
 6409W        W13718   0.635   3.119   6.996
 6410W        W13719  16.096   7.569   9.179
 6411W        W13720   1.434   7.015   6.821
 6412W        W13721   4.220   4.084   9.246
 6413W        W13722   0.531   0.561   7.813
 6414W        W13723   7.543   4.456   7.193
 6415W        W13724  15.960   0.995   6.197
 6416W        W13725  15.459   3.555   8.422
 6417W        W13726   6.695   2.931   0.006
 6418W        W13727  15.575   8.145   7.931
 6419W        W13728  13.036   3.619   9.872
 6420W        W13729   9.642   7.129   7.177
 6421W        W13730  19.910   5.511   7.092
 6422W        W13731  12.942   5.037   9.630
 6423W        W13732   2.124   9.192   6.298
 6424W        W13733   3.700   5.418   7.272
 6425W        W13734  19.111   1.052   0.257
 6426W        W13735   2.947   1.534   6.579
 6427W        W13736   3.349   9.334   7.801
 6428W        W13737   1.173   5.901   7.156
 6429W        W13738  12.965   7.187   7.653
 6430W        W13739   9.702   4.166   0.344
 6431W        W13740  10.679   8.242   9.786
 6432W        W13741  19.465   7.980   7.986
 6433W        W13742  18.246   2.086   8.700
 6434W        W13743  19.864   9.004   6.264
 6435W        W13744  18.790   1.679   7.154
 6436W        W13745   8.733   9.478   7.574
 6437W        W13746   6.235   8.433   6.692
 6438W        W13747   4.532   7.694   7.793
 6439W        W13748   3.524   4.059   7.527
 6440W        W13749   7.991   6.510   7.103
 6441W        W13750  11.769   0.125   7.255
 6442W        W13751  12.325   1.442   9.591
 6443W        W13752  10.232   5.977   8.316
 6444W        W13753   2.354   1.158   7.111
 6445W        W13754   0.774   6.862   9.881
 6446W        W13755   2.466   1.759   5.914
 6447W        W13756   0.645   7.182   9.355
 6448W        W13757   0.736   6.970   6.186
 6449W        W13758   1.001   3.454   8.827
 6450W        W13759   6.896   7.395   8.042
 6451W        W13760  14.382   3.460   0.122
 6452W        W13761   8.051   7.771   6.235
 6453W        W13762   3.774   1.759   7.473
 6454W        W13763  15.001   3.596   8.159
 6455W        W13764  16.676   1.611   7.220
 6456W        W13765   0.337   2.766   7.514
 6457W        W13766  18.873   6.953   0.337
 6458W        W13767  16.937   2.037   8.410
 6459W        W13768   6.587   7.022   9.912
 6460W        W13769   1.923   1.621   9.662
 6461W        W13770   0.067   1.255   0.641
 6462W        W13771  19.115   6.511   9.627
 6463W        W13772  16.261   1.412   6.184
 6464W        W13773   1.164   0.661   8.954
 6465W        W13774   5.549   9.725   8.691
 6466W        W13775  12.741   7.486   7.256
 6467W        W13776   8.970   9.319   8.546
 6468W        W13777   3.289   4.040   9.622
 6469W        W13778  18.268   5.759   9.258
 6470W        W13779   4.629   0.199   8.416
 6471W        W13780  13.547   0.534   8.793
 6472W        W13781   2.356   6.910   0.208
 6473W        W13782  13.803   0.647   6.410
 6474W        W13783   8.018   3.308   7.113
 6475W        W13784   4.043   5.486   0.291
 6476W        W13785   7.645   5.486   0.749
 6477W        W13786  17.771   8.192   9.438
 6478W        W13787  11.844   2.630   6.734
 6479W        W13788   1.723   6.656   9.709
 6480W        W13789   7.700   1.268   7.551
 6481W        W13790   7.713   1.329   8.652
 6482W        W13791   4.695   7.084   9.202
 6483W        W13792  10.185   8.886   9.337
 6484W        W13793  13.745   9.660   6.136
 6485W        W13794   6.355   8.372   0.202
 6486W        W13795  18.141   0.827   7.396
 6487W        W13796  14.369   7.092   7.347
 6488W        W13797   6.601   5.420   6.623
 6489W        W13798  13.131   2.811   6.233
 6490W        W13799  16.755   4.088   8.372
 6491W        W13800   9.915   1.882   7.454
 6492W        W13801   2.008   4.779   6.646
 6493W        W13802   3.850   4.692   0.744
 6494W        W13803   6.370   7.815   0.756
 6495W        W13804  10.260   8.847   7.362
 6496W        W13805  11.582   4.353   9.402
 6497W        W13806  16.888   9.954   9.360
 6498W        W13807   4.758   9.967   0.299
 6499W        W13808   7.857   1.098   9.308
 6500W        W13809   6.939   0.354   9.657
 6501W        W13810   0.331   1.082   6.294
 6502W        W13811   2.453   2.515   7.414
 6503W        W13812  15.420   0.048   6.981
 6504W        W13813   6.363   3.679   0.977
 6505W        W13814   6.768   4.943   8.196
 6506W        W13815  17.124   5.167   7.194
 6507W        W13816  14.887   0.302   0.263
 6508W        W13817  19.012   9.762   6.891
 6509W        W13818   1.748   1.919   8.970
 6510W        W13819  15.916   4.978   7.015
 6511W        W13820   2.924   1.131   9.319
 6512W        W13821   5.433   2.819   0.827
 6513W        W13822  15.292   7.126   0.470
 6514W        W13823   8.942   9.942   7.659
 6515W        W13824   7.865   9.421   0.056
 6516W        W13825   2.335   9.456   7.991
 6517W        W13826   5.174   4.936   0.957
 6518W        W13827  15.068   2.511   0.977
 6519W        W13828   0.995   6.354   9.259
 6520W        W13829   6.750   8.151   8.716
 6521W        W13830   7.205   7.649   0.300
 6522W        W13831  13.296   1.722   7.526
 6523W        W13832  11.280   9.831   9.688
 6524W        W13833  16.477   7.405   0.559
 6525W        W13834   4.876   3.204   9.841
 6526W        W13835   5.614   4.376   6.967
 6527W        W13836  16.820   5.499   8.912
 6528W        W13837   9.840   2.756   7.720
 6529W        W13838  10.965   0.896   0.411
 6530W        W13839  18.078   5.614   9.712
 6531W        W13840  13.891   9.272   8.679
 6532W        W13841  19.053   1.106   9.203
 6533W        W13842   9.801   4.789   8.944
 6534W        W13843   1.693   1.274   0.411
 6535W        W13844   0.255   8.018   7.976
 6536W        W13845  11.170   0.504   7.925
 6537W        W13846   6.463   5.912   7.967
 6538W        W13847   6.808   7.174   8.500
 6539W        W13848   1.642   5.380   9.405
 6540W        W13849  19.350   7.682   7.109
 6541W        W13850   1.140   2.101   6.790
 6542W        W13851  19.190   2.618   9.994
 6543W        W13852   7.199   7.327   8.800
 6544W        W13853  10.308   4.119   8.321
 6545W        W13854  12.411   0.715   0.630
 6546W        W13855   2.883   5.840   6.779
 6547W        W13856   0.579   4.880   6.943
 6548W        W13857   1.608   5.614   7.070
 6549W        W13858   5.803   9.688   9.174
 6550W        W13859   3.779   4.467   8.942
 6551W        W13860  19.461   9.306   6.326
 6552W        W13861   4.332   0.095   7.863
 6553W        W13862  15.341   5.873   9.580
 6554W        W13863   7.132   0.087   7.435
 6555W        W13864  18.671   3.361   6.849
 6556W        W13865  14.068   9.349   9.673
 6557W        W13866  19.848   0.839   6.689
 6558W        W13867  19.730   0.380   0.196
 6559W        W13868   2.127   6.625   6.432
 6560W        W13869  17.288   4.161   9.017
 6561W        W13870   7.602   4.913   7.512
 6562W        W13871  15.303   0.843   8.770
 6563W        W13872   2.309   1.187   7.623
 6564W        W13873   4.711   9.081   9.311
 6565W        W13874   8.487   0.545   9.876
 6566W        W13875  19.549   0.860   0.023
 6567W        W13876   0.378   3.670   0.464
 6568W        W13877  16.689   4.498   0.249
 6569W        W13878   1.322   3.233   9.178
 6570W        W13879   9.947   0.119   7.327
 6571W        W13880  16.832   2.161   9.975
 6572W        W13881   8.304   2.781   7.927
 6573W        W13882   5.913   2.431   6.803
 6574W        W13883  10.737   0.598   8.245
 6575W        W13884   1.940   6.348   7.774
 6576W        W13885   3.748   2.312   9.003
 6577W        W13886   7.975   9.180   8.232
 6578W        W13887   6.033   0.188   7.293
 6579W        W13888  18.273   4.083   9.933
 6580W        W13889   2.228   9.146   8.374
 6581W        W13890  14.119   7.743   7.975
 6582W        W13891   2.711   9.977   6.262
 6583W        W13892  17.173   0.419   0.032
 6584W        W13893   5.541   9.766   8.176
 6585W        W13894  18.491   8.420   7.585
 6586W        W13895  18.457   6.906   0.038
 6587W        W13896  14.718   8.825   7.285
 6588W        W13897  10.687   7.314   9.712
 6589W        W13898  17.889   7.405   7.643
 6590W        W13899   6.301   9.204   0.217
 6591W        W13900  15.270   0.288   8.944
 6592W        W13901   6.608   9.605   0.131
 6593W        W13902   6.337   9.695   0.992
 6594W        W13903   6.147   4.393   5.847
 6595W        W13904   4.197   9.123   9.386
 6596W        W13905   2.132   4.215   6.183
 6597W        W13906  19.155   2.582   9.449
 6598W        W13907  13.613   9.236   1.032
 6599W        W13908   4.121   4.956   0.065
 6600W        W13909   9.518   4.559   9.328
 6601W        W13910  14.077   2.784   7.890
 6602W        W13911  13.382   1.344   6.343
 6603W        W13912  18.707   3.930   7.334
 6604W        W13913  17.010   2.859   6.098
 6605W        W13914  18.859   6.015   8.338
 6606W        W13915   4.668   4.178   9.010
 6607W        W13916   5.017   9.199   0.837
 6608W        W13917  19.234   3.270   7.876
 6609W        W13918  15.624   0.627   9.121
 6610W        W13919   5.452   0.635   6.795
 6611W        W13920  11.188   2.069   6.118
 6612W        W13921   0.914   6.947   7.994
 6613W        W13922  10.247   3.663   8.578
 6614W        W13923  10.520   3.293   1.329
 6615W        W13924  13.328   5.512   1.018
 6616W        W13925   1.572   7.913   7.572
 6617W        W13926   3.800   1.552   9.737
 6618W        W13927   6.336   3.264   0.065
 6619W        W13928   8.108   0.341   8.698
 6620W        W13929  10.805   9.750   0.593
 6621W        W13930   8.399   7.413   5.835
 6622W        W13931  19.656   5.142   7.992
 6623W        W13932  15.434   0.778   8.263
 6624W        W13933  10.086   0.730   9.990
 6625W        W13934  19.640   2.939   7.069
 6626W        W13935   0.727   6.597   7.388
 6627W        W13936  15.628   9.498   8.256
 6628W        W13937   0.105   4.926   6.762
 6629W        W13938   0.322   0.806   0.775
 6630W        W13939  17.288   2.636   0.975
 6631W        W13940   5.695   8.918   0.177
 6632W        W13941  17.929   0.467   8.341
 6633W        W13942   3.720   5.500   5.738
 6634W        W13943   3.050   4.305   6.215
 6635W        W13944  19.606   2.676   9.150
 6636W        W13945  17.792   8.631   7.712
 6637W        W13946  12.251   4.061   9.185
 6638W        W13947   4.532   3.701   8.759
 6639W        W13948  19.608   4.798   6.390
 6640W        W13949  18.411   5.799   8.364
 6641W        W13950  19.282   7.391   8.777
 6642W        W13951  12.801   5.659   8.854
 6643W        W13952  11.013   4.620   8.374
 6644W        W13953  10.436   9.172   7.920
 6645W        W13954   2.379   7.512   9.725
 6646W        W13955   8.153   4.207   6.544
 6647W        W13956   8.466   7.847   1.044
 6648W        W13957  13.140   4.229   8.611
 6649W        W13958  18.080   6.006   8.848
 6650W        W13959   4.141   9.466   9.791
 6651W        W13960  12.166   8.442   9.297
 6652W        W13961  16.165   0.945   7.798
 6653W        W13962  15.874   4.584   6.589
 6654W        W13963   9.144   6.550   0.664
 6655W        W13964  15.411   8.118   6.044
 6656W        W13965   9.980   1.364   7.537
 6657W        W13966  17.002   6.707   8.565
 6658W        W13967  17.456   5.995   8.503
 6659W        W13968  12.915   9.035   8.907
 6660W        W13969  14.029   7.351   0.221
 6661W        W13970   9.983   2.255   7.868
 6662W        W13971  14.107   8.921   7.398
 6663W        W13972   7.757   0.564   6.955
 6664W        W13973  11.490   4.659   6.346
 6665W        W13974  10.562   1.686   9.545
 6666W        W13975   6.423   4.552   7.574
 6667W        W13976  15.540   5.086   0.090
 6668W        W13977  17.745   2.163   0.000
 6669W        W13978  13.163   8.909   6.422
 6670W        W13979  13.933   0.239   9.736
 6671W        W13980   8.883   5.440   0.234
 6672W        W13981   8.892   2.770   8.770
 6673W        W13982  16.725   8.857   6.721
 6674W        W13983  10.439   7.225   8.859
 6675W        W13984  14.255   6.889   8.304
 6676W        W13985   3.892   5.071   6.588
 6677W        W13986   2.488   4.655   8.107
 6678W        W13987  12.489   2.090   8.443
 6679W        W13988   7.313   4.972   9.798
 6680W        W13989   6.730   5.580   8.916
 6681W        W13990   5.126   2.208   8.711
 6682W        W13991  13.342   8.752   8.674
 6683W        W13992   4.870   7.000   7.356
 6684W        W13993   5.086   0.454   8.291
 6685W        W13994  12.254   2.242   6.091
 6686W        W13995   8.101   5.728   0.637
 6687W        W13996  17.580   4.578   0.182
 6688W        W13997  17.340   7.415   7.902
 6689W        W13998   2.442   8.385   8.820
 6690W        W13999   6.504   7.920   9.976
 6691W        W14000   7.144   1.134   7.454
 6692W        W14001   0.509   7.479   6.892
 6693W        W14002  11.575   0.773   6.172
 6694W        W14003  13.859   9.685   0.478
 6695W        W14004  12.724   4.333   7.436
 6696W        W14005   4.217   2.316   8.775
 6697W        W14006  11.232   8.794   9.313
 6698W        W14007  19.795   3.001   6.592
 6699W        W14008   3.622   9.720   8.163
 6700W        W14009   3.322   1.081   8.552
 6701W        W14010   5.757   6.666   7.681
 6702W        W14011  13.225   5.564   6.120
 6703W        W14012   9.685   6.756   7.999
 6704W        W14013  13.420   0.847   6.110
 6705W        W14014  15.212   8.663   7.147
 6706W        W14015  17.928   4.043   6.802
 6707W        W14016   1.441   9.376   8.876
 6708W        W14017   6.011   3.935   0.210
 6709W        W14018   2.155   4.721   6.152
 6710W        W14019  18.081   5.334   0.132
 6711W        W14020  11.628   3.716   7.757
 6712W        W14021  16.323   4.911   7.746
 6713W        W14022   0.395   4.133   0.251
 6714W        W14023   2.367   8.852   7.240
 6715W        W14024   3.474   7.480   8.688
 6716W        W14025   6.791   1.219   7.816
 6717W        W14026  18.841   4.658   0.893
 6718W        W14027  14.663   5.427   9.155
 6719W        W14028   7.042   9.277   7.181
 6720W        W14029   3.901   0.128   6.574
 6721W        W14030   5.022   2.822   6.987
 6722W        W14031   9.024   7.621   8.732
 6723W        W14032  11.546   2.200   6.502
 6724W        W14033  12.710   6.662   7.045
 6725W        W14034  10.264   4.930   8.746
 6726W        W14035   0.298   6.879   9.139
 6727W        W14036  13.556   1.450   9.296
 6728W        W14037  14.883   7.253   9.607
 6729W        W14038   9.946   8.699   8.911
 6730W        W14039   7.809   7.106   0.983
 6731W        W14040  18.418   7.051   6.149
 6732W        W14041  14.969   4.916   7.513
 6733W        W14042  17.974   1.330   7.445
 6734W        W14043  19.501   4.111   8.020
 6735W        W14044   8.592   7.295   8.929
 6736W        W14045   8.881   0.321   0.769
 6737W        W14046   8.799   2.815   8.056
 6738W        W14047  13.635   2.729   6.232
 6739W        W14048  13.187   8.427   0.128
 6740W        W14049   4.669   9.703   6.120
 6741W        W14050  10.820   2.463   9.850
 6742W        W14051   9.470   6.698   6.973
 6743W        W14052   9.571   5.843   6.849
 6744W        W14053   8.809   8.209   9.412
 6745W        W14054  12.540   3.458   8.130
 6746W        W14055  18.286   1.562   5.930
 6747W        W14056  17.770   3.563   8.828
 6748W        W14057  11.437   1.685   8.545
 6749W        W14058  12.449   4.693   6.624
 6750W        W14059   3.800   9.315   8.415
 6751W        W14060   7.631   1.482   6.969
 6752W        W14061   5.209   1.642   0.418
 6753W        W14062  13.939   5.534   6.750
 6754W        W14063  17.304   6.439   7.252
 6755W        W14064  14.411   8.975   9.682
 6756W        W14065   6.148   3.748   6.456
 6757W        W14066   7.999   9.899   9.938
 6758W        W14067  12.588   8.866   7.569
 6759W        W14068   3.498   0.578   0.180
 6760W        W14069   9.162   9.597   8.977
 6761W        W14070   4.628   6.396   6.701
 6762W        W14071   1.874   8.107   7.980
 6763W        W14072  14.499   9.272   0.968
 6764W        W14073  11.609   4.609   7.823
 6765W        W14074   4.114   9.905   8.266
 6766W        W14075   7.564   8.318   0.409
 6767W        W14076  15.693   8.963   8.244
 6768W        W14077   9.121   5.621   6.857
 6769W        W14078  14.519   3.299   6.499
 6770W        W14079  13.398   0.908   6.615
 6771W        W14080  15.622   9.788   0.657
 6772W        W14081  15.506   3.597   7.908
 6773W        W14082   3.630   0.154   9.935
 6774W        W14083  13.262   2.305   9.234
 6775W        W14084  17.752   5.633   9.321
 6776W        W14085   3.022   5.058   0.830
 6777W        W14086  17.304   8.020   7.336
 6778W        W14087   0.910   3.138   8.440
 6779W        W14088   1.845   3.537   8.604
 6780W        W14089  19.352   6.878   0.540
 6781W        W14090  12.183   5.138   6.815
 6782W        W14091   9.033   4.083   6.218
 6783W        W14092  13.420   8.812   9.868
 6784W        W14093   3.507   4.576   6.208
 6785W        W14094   3.801   8.247   7.056
 6786W        W14095  10.248   2.865   0.266
 6787W        W14096   1.575   7.277   0.811
 6788W        W14097  15.540   2.359   8.995
 6789W        W14098   7.652   6.831   6.619
 6790W        W14099   1.358   6.732   9.261
 6791W        W14100   3.355   0.748   6.221
 6792W        W14101  13.347   6.795   9.301
 6793W        W14102   0.154   2.802   0.460
 6794W        W14103  10.438   7.564   6.900
 6795W        W14104   8.553   1.161   7.275
 6796W        W14105  15.866   0.256   9.388
 6797W        W14106   6.406   3.267   6.537
 6798W        W14107   9.028   9.072   0.571
 6799W        W14108  12.674   9.754   8.618
 6800W        W14109   0.832   2.680   7.182
 6801W        W14110  12.844   5.663   7.531
 6802W        W14111   0.241   8.205   0.183
 6803W        W14112   2.571   8.467   7.547
 6804W        W14113  12.555   5.807   0.749
 6805W        W14114   7.094   9.584   0.291
 6806W        W14115   2.724   3.697   7.228
 6807W        W14116   0.783   9.629   7.532
 6808W        W14117   7.445   9.226   9.096
 6809W        W14118  15.577   6.415   8.076
 6810W        W14119   2.769   5.900   0.101
 6811W        W14120   2.641   4.571   6.736
 6812W        W14121  17.766   5.877   7.247
 6813W        W14122  12.781   7.589   0.754
 6814W        W14123  19.681   0.743   8.342
 6815W        W14124   3.815   9.776   8.656
 6816W        W14125  16.469   4.457   8.598
 6817W        W14126  13.684   4.937   6.284
 6818W        W14127  18.729   4.183   7.777
 6819W        W14128   3.893   7.456   0.706
 6820W        W14129  13.083   9.891   8.349
 6821W        W14130   2.358   2.995   7.529
 6822W        W14131  16.395   1.278   9.225
 6823W        W14132  14.239   6.659   9.582
 6824W        W14133  17.027   6.105   9.351
 6825W        W14134  12.985   1.240   6.722
 6826W        W14135  10.326   8.674   7.953
 6827W        W14136   0.616   7.210   8.815
 6828W        W14137   7.865   1.420   8.015
 6829W        W14138   5.604   6.414   6.230
 6830W        W14139   2.693   3.664   6.699
 6831W        W14140   0.411   5.057   0.217
 6832W        W14141  16.196   9.925   8.876
 6833W        W14142   1.428   6.100   6.365
 6834W        W14143   2.651   4.585   8.988
 6835W        W14144  10.139   5.559   7.072
 6836W        W14145  13.803   1.010   7.028
 6837W        W14146   5.379   3.158   8.811
 6838W        W14147   1.557   6.456   8.463
 6839W        W14148  18.219   1.217   9.224
 6840W        W14149  11.224   5.148   0.936
 6841W        W14150  18.603   3.376   7.354
 6842W        W14151  10.274   1.532   8.417
 6843W        W14152   7.046   8.945   0.781
 6844W        W14153   0.189   9.283   0.970
 6845W        W14154   8.099   5.878   9.250
 6846W        W14155   1.191   0.462   0.728
 6847W        W14156  12.417   9.341   8.810
 6848W        W14157   6.123   8.755   9.923
 6849W        W14158   9.464   6.956   8.927
 6850W        W14159   0.715   4.545   9.280
 6851W        W14160  10.473   4.905   7.629
 6852W        W14161  13.243   6.354   7.976
 6853W        W14162  16.219   9.939   9.806
 6854W        W14163   3.909   5.946   8.101
 6855W        W14164   0.795   6.771   9.030
 6856W        W14165  12.625   8.946   7.054
 6857W        W14166  11.821   1.381   7.846
 6858W        W14167   3.963   1.242   0.539
 6859W        W14168  17.812   2.284   7.413
 6860W        W14169  18.789   8.775   0.633
 6861W        W14170   6.455   1.122   9.595
 6862W        W14171   1.331   0.224   6.466
 6863W        W14172  17.833   5.942   0.386
 6864W        W14173   8.262   3.016   9.233
 6865W        W14174  18.277   8.572   8.022
 6866W        W14175   5.021   2.046   0.147
 6867W        W14176  19.220   7.674   7.621
 6868W        W14177   1.790   3.141   0.854
 6869W        W14178  11.494   0.734   0.258
 6870W        W14179   2.765   2.188   8.859
 6871W        W14180   8.887   6.114   0.737
 6872W        W14181  12.964   6.590   0.653
 6873W        W14182   8.399   3.429   6.391
 6874W        W14183   5.561   8.116   0.557
 6875W        W14184   5.765   7.602   0.592
 6876W        W14185  15.953   5.810   7.501
 6877W        W14186   1.985   0.439   8.132
 6878W        W14187  16.943   5.676   7.513
 6879W        W14188  13.304   1.791   8.488
 6880W        W14189  13.970   0.143   0.237
 6881W        W14190   5.678   3.982   7.299
 6882W        W14191  14.810   1.278   0.357
 6883W        W14192   7.572   7.872   7.584
 6884W        W14193   3.964   3.789   0.622
 6885W        W14194   4.988   6.729   9.406
 6886W        W14195   3.762   2.551   0.338
 6887W        W14196  19.659   7.445   0.568
 6888W        W14197  13.430   7.232   6.865
 6889W        W14198  19.207   5.054   7.757
 6890W        W14199  12.364   1.348   0.374
 6891W        W14200  17.577   3.676   6.641
 6892W        W14201   8.107   8.270   8.266
 6893W        W14202   5.060   5.456   0.326
 6894W        W14203  15.921   4.199   5.864
 6895W        W14204  14.174   0.744   6.777
 6896W        W14205   6.404   0.207   8.496
 6897W        W14206  17.095   5.218   7.692
 6898W        W14207   9.115   5.296   8.077
 6899W        W14208   3.746   0.250   8.437
 6900W        W14209   8.095   7.764   8.365
 6901W        W14210  19.715   3.145   9.454
 6902W        W14211  17.707   2.175   0.508
 6903W        W14212   6.217   7.956   7.876
 6904W        W14213  17.475   0.851   9.978
 6905W        W14214  14.463   0.808   9.201
 6906W        W14215   7.248   4.683   8.883
 6907W        W14216   1.215   4.455   6.945
 6908W        W14217  11.542   4.281   0.805
 6909W        W14218  11.848   7.526   7.039
 6910W        W14219   0.995   0.149   6.060
 6911W        W14220  16.933   2.990   9.431
 6912W        W14221   8.220   8.238   9.629
 6913W        W14222  15.396   5.454   7.886
 6914W        W14223   5.391   7.383   9.865
 6915W        W14224   0.423   5.476   8.533
 6916W        W14225  15.709   7.988   6.825
 6917W        W14226   9.780   3.472   8.583
 6918W        W14227   7.115   2.534   8.148
 6919W        W14228   1.189   5.306   6.971
 6920W        W14229   5.598   8.650   9.234
 6921W        W14230  10.276   3.380   0.237
 6922W        W14231   3.118   9.279   7.312
 6923W        W14232   3.769   2.169   6.994
 6924W        W14233   5.747   7.431   6.989
 6925W        W14234  16.896   6.660   6.487
 6926W        W14235   0.293   4.392   7.490
 6927W        W14236   7.182   5.239   0.763
 6928W        W14237  19.069   8.661   8.651
 6929W        W14238  18.787   6.494   8.529
 6930W        W14239   2.150   8.153   7.534
 6931W        W14240   8.868   5.955   9.910
 6932W        W14241  16.510   7.216   9.803
 6933W        W14242   5.151   6.917   9.845
 6934W        W14243  11.120   7.284   6.662
 6935W        W14244  16.047   2.258   8.294
 6936W        W14245   6.747   2.503   6.796
 6937W        W14246   3.979   1.441   7.027
 6938W        W14247   1.943   8.714   8.380
 6939W        W14248   6.363   2.526   8.380
 6940W        W14249  14.273   3.204   8.770
 6941W        W14250  13.920   9.734   8.941
 6942W        W14251   9.908   0.250   6.293
 6943W        W14252   1.191   1.237   0.622
 6944W        W14253   1.085   0.162   6.909
 6945W        W14254  11.962   5.925   6.178
 6946W        W14255  18.445   5.108   9.695
 6947W        W14256   1.756   3.813   7.731
 6948W        W14257  13.271   3.082   7.910
 6949W        W14258   3.789   0.485   6.223
 6950W        W14259  13.407   0.106   0.769
 6951W        W14260   1.226   1.905   8.983
 6952W        W14261   8.403   9.186   9.227
 6953W        W14262   8.045   7.044   0.177
 6954W        W14263   0.464   3.720   6.246
 6955W        W14264   9.377   3.161   0.159
 6956W        W14265   6.617   3.016   0.507
 6957W        W14266   0.770   6.628   6.604
 6958W        W14267   9.801   2.622   8.208
 6959W        W14268   1.122   1.190   6.853
 6960W        W14269   9.961   2.238   0.956
 6961W        W14270   8.784   2.166   7.461
 6962W        W14271   6.145   0.497   1.056
 6963W        W14272  15.898   2.416   0.587
 6964W        W14273  13.629   6.345   9.261
 6965W        W14274  19.836   8.481   6.222
 6966W        W14275  18.780   7.427   9.565
 6967W        W14276   8.227   5.556   8.875
 6968W        W14277   2.144   4.503   9.191
 6969W        W14278  10.966   3.697   0.702
 6970W        W14279  15.252   2.774   6.355
 6971W        W14280   2.155   4.196   1.009
 6972W        W14281  13.506   7.188   7.896
 6973W        W14282  15.396   5.708   8.736
 6974W        W14283   2.235   8.495   7.963
 6975W        W14284   5.865   5.431   0.763
 6976W        W14285  13.096   0.373   8.618
 6977W        W14286  12.355   3.048   7.840
 6978W        W14287   7.466   9.740   9.263
 6979W        W14288   2.923   0.713   7.932
 6980W        W14289   0.615   1.674   0.890
 6981W        W14290  17.840   6.532   7.997
 6982W        W14291  17.646   9.804   0.693
 6983W        W14292  19.145   3.535   9.153
 6984W        W14293  11.599   6.906   1.041
 6985W        W14294  11.331   5.699   9.250
 6986W        W14295   2.905   7.488   9.717
 6987W        W14296   0.756   0.736   9.838
 6988W        W14297  14.121   6.052   9.616
 6989W        W14298   2.578   0.061   7.036
 6990W        W14299  11.671   1.135   9.774
 6991W        W14300  10.951   9.637   9.336
 6992W        W14301  15.155   1.642   0.432
 6993W        W14302   7.450   0.372   9.887
 6994W        W14303  14.691   1.653   6.147
 6995W        W14304  19.183   6.780   8.155
 6996W        W14305   5.570   9.264   8.045
 6997W        W14306  13.451   9.203   7.860
 6998W        W14307   1.316   4.042   0.169
 6999W        W14308   7.174   5.757   0.723
 7000W        W14309  11.493   9.550   7.127
 7001W        W14310   3.981   0.413   0.229
 7002W        W14311  19.716   6.538   0.737
 7003W        W14312  15.452   5.815   7.302
 7004W        W14313   9.898   0.025   0.610
 7005W        W14314   2.236   9.205   9.210
 7006W        W14315  11.551   9.427   8.839
 7007W        W14316  14.544   0.347   6.917
 7008W        W14317  15.902   9.245   9.258
 7009W        W14318   7.227   0.859   9.887
 7010W        W14319  12.636   1.031   9.486
 7011W        W14320   0.516   2.514   7.949
 7012W        W14321   4.409   0.245   6.493
 7013W        W14322  14.991   9.412   9.718
 7014W        W14323  13.940   0.639   8.457
 7015W        W14324  19.784   9.564   9.027
 7016W        W14325   9.714   6.253   7.100
 7017W        W14326  16.622   4.438   9.653
 7018W        W14327  17.481   3.488   8.406
 7019W        W14328   2.552   4.290   8.509
 7020W        W14329  16.103   0.909   9.836
 7021W        W14330   1.099   3.656   9.895
 7022W        W14331   4.728   1.037   7.783
 7023W        W14332  12.748   6.419   7.985
 7024W        W14333  13.065   7.223   9.327
 7025W        W14334  11.931   5.214   0.611
 7026W        W14335  10.314   2.874   6.627
 7027W        W14336  14.771   3.224   0.532
 7028W        W14337  15.027   3.277   6.294
 7029W        W14338  13.176   5.055   6.953
 7030W        W14339  17.652   3.292   7.401
 7031W        W14340   5.923   2.013   7.732
 7032W        W14341  13.488   1.882   8.996
 7033W        W14342  14.419   6.358   6.743
 7034W        W14343   4.128   6.884   7.803
 7035W        W14344  13.541   4.417   0.719
 7036W        W14345  12.427   4.705   6.106
 7037W        W14346   7.226   1.871   6.763
 7038W        W14347   9.898   5.544   6.623
 7039W        W14348  14.188   2.084   8.272
 7040W        W14349   2.126   4.280   8.209
 7041W        W14350  19.112   7.241   7.020
 7042W        W14351   4.616   3.051   9.416
 7043W        W14352   9.252   5.871   6.421
 7044W        W14353   7.920   7.373   0.544
 7045W        W14354   7.485   0.981   8.964
 7046W        W14355   3.606   7.042   0.634
 7047W        W14356   1.846   7.823   8.450
 7048W        W14357  12.950   6.316   6.698
 7049W        W14358   5.593   9.250   8.544
 7050W        W14359  12.029   0.148   9.852
 7051W        W14360  15.893   6.820   1.077
 7052W        W14361  13.279   5.999   8.388
 7053W        W14362  14.559   6.403   8.269
 7054W        W14363  18.755   4.438   7.301
 7055W        W14364  17.286   6.862   9.587
 7056W        W14365  16.595   0.164   8.271
 7057W        W14366  13.794   8.857   9.468
 7058W        W14367   5.347   5.391   0.752
 7059W        W14368  16.295   8.354   9.758
 7060W        W14369  15.420   8.487   9.388
 7061W        W14370  18.616   3.674   7.792
 7062W        W14371   6.023   1.858   9.378
 7063W        W14372  13.852   1.473   6.111
 7064W        W14373   7.888   0.059   6.942
 7065W        W14374  10.199   1.361   9.379
 7066W        W14375  12.236   6.236   8.745
 7067W        W14376   1.212   0.741   7.962
 7068W        W14377   8.353   8.618   9.961
 7069W        W14378   7.726   4.624   7.994
 7070W        W14379   6.937   3.291   6.549
 7071W        W14380   2.161   9.729   9.921
 7072W        W14381   6.983   2.782   7.227
 7073W        W14382   1.838   3.634   7.250
 7074W        W14383  17.234   2.855   6.978
 7075W        W14384   5.692   1.577   8.422
 7076W        W14385  13.467   6.212   7.484
 7077W        W14386  14.407   5.932   9.182
 7078W        W14387   5.879   6.608   0.286
 7079W        W14388   3.600   1.272   7.321
 7080W        W14389  11.624   5.980   0.993
 7081W        W14390   3.842   8.853   9.116
 7082W        W14391  14.780   9.444   6.563
 7083W        W14392  12.135   1.072   8.117
 7084W        W14393  18.464   0.721   7.008
 7085W        W14394   8.917   9.154   9.069
 7086W        W14395   1.467   3.659   8.930
 7087W        W14396   0.053   7.588   9.826
 7088W        W14397  11.381   5.620   7.338
 7089W        W14398   4.664   8.688   9.626
 7090W        W14399   4.886   4.028   7.939
 7091W        W14400  17.040   7.883   6.908
 7092W        W14401   5.325   5.200   6.873
 7093W        W14402  14.059   2.018   0.321
 7094W        W14403  12.511   0.867   0.151
 7095W        W14404  10.553   5.558   8.384
 7096W        W14405   5.863   5.328   7.219
 7097W        W14406  16.572   7.587   6.157
 7098W        W14407  13.608   2.244   6.436
 7099W        W14408   6.005   8.001   9.946
 7100W        W14409  17.555   1.132   7.228
 7101W        W14410  11.184   9.024   6.851
 7102W        W14411   6.136   8.773   0.433
 7103W        W14412  12.011   3.506   8.213
 7104W        W14413  16.676   8.753   0.226
 7105W        W14414  13.911   1.192   0.981
 7106W        W14415  14.854   7.161   6.769
 7107W        W14416  15.890   7.315   0.644
 7108W        W14417   4.855   7.411   0.762
 7109W        W14418   3.355   3.180   9.716
 7110W        W14419  15.719   6.404   8.990
 7111W        W14420  15.726   7.690   9.877
 7112W        W14421  13.872   1.173   6.534
 7113W        W14422   5.161   2.770   7.487
 7114W        W14423   9.376   3.692   6.158
 7115W        W14424   2.718   1.614   9.181
 7116W        W14425   7.282   9.244   7.734
 7117W        W14426  14.080   2.472   6.273
 7118W        W14427   8.105   8.611   6.566
 7119W        W14428  17.873   7.766   9.128
 7120W        W14429   3.898   7.656   8.395
 7121W        W14430  16.007   6.861   0.181
 7122W        W14431  12.291   7.349   8.979
 7123W        W14432  12.765   2.967   8.138
 7124W        W14433  10.796   6.909   6.498
 7125W        W14434   6.840   9.690   6.930
 7126W        W14435  11.144   8.356   8.058
 7127W        W14436  12.116   1.025   7.573
 7128W        W14437  15.790   7.763   0.400
 7129W        W14438  15.782   3.984   8.472
 7130W        W14439  17.716   7.308   6.675
 7131W        W14440   0.042   6.383   6.606
 7132W        W14441   5.665   6.185   7.869
 7133W        W14442  15.685   3.088   8.456
 7134W        W14443  18.323   0.784   8.419
 7135W        W14444  16.218   5.543   0.613
 7136W        W14445   6.345   2.245   6.438
 7137W        W14446  18.387   3.396   0.618
 7138W        W14447  15.432   4.933   7.262
 7139W        W14448  12.308   1.662   0.854
 7140W        W14449   0.869   5.301   0.293
 7141W        W14450   5.137   7.516   0.318
 7142W        W14451  17.781   5.451   0.533
 7143W        W14452  19.882   9.360   7.796
 7144W        W14453   3.277   5.045   0.392
 7145W        W14454   6.645   8.094   7.584
 7146W        W14455   2.598   3.117   7.082
 7147W        W14456   3.047   9.265   6.729
 7148W        W14457   4.166   0.339   9.174
 7149W        W14458   6.186   0.966   0.840
 7150W        W14459  14.602   7.209   6.322
 7151W        W14460   7.517   2.672   9.824
 7152W        W14461   5.825   7.713   8.649
 7153W        W14462  16.787   2.571   9.681
 7154W        W14463   9.990   4.076   7.920
 7155W        W14464   5.091   4.547   6.313
 7156W        W14465   8.679   0.536   8.011
 7157W        W14466   2.647   6.870   8.014
 7158W        W14467   2.038   3.271   6.223
 7159W        W14468  15.714   2.688   6.162
 7160W        W14469   0.101   1.648   0.968
 7161W        W14470   8.948   3.533   8.132
 7162W        W14471   6.459   9.258   8.804
 7163W        W14472   8.515   2.529   6.937
 7164W        W14473   5.196   4.138   7.257
 7165W        W14474   0.035   1.849   0.041
 7166W        W14475   0.293   8.219   6.090
 7167W        W14476  16.677   0.426   9.282
 7168W        W14477  19.095   0.256   9.268
 7169W        W14478   0.037   6.453   9.975
 7170W        W14479   1.199   5.689   0.326
 7171W        W14480  18.283   4.641   7.445
 7172W        W14481  16.256   1.717   9.454
 7173W        W14482  12.913   8.005   9.475
 7174W        W14483   8.230   6.958   0.693
 7175W        W14484   4.756   5.770   9.178
 7176W        W14485  10.486   0.359   9.113
 7177W        W14486  19.126   3.001   8.296
 7178W        W14487  14.953   0.083   6.233
 7179W        W14488   5.030   0.593   7.780
 7180W        W14489   9.455   0.246   8.441
 7181W        W14490  14.237   8.090   6.036
 7182W        W14491  15.163   9.607   0.670
 7183W        W14492  11.580   9.858   6.274
 7184W        W14493   1.281   0.774   6.069
 7185W        W14494  16.338   0.206   0.251
 7186W        W14495  19.978   2.466   9.437
 7187W        W14496   3.832   9.266   7.920
 7188W        W14497  13.154   7.433   0.368
 7189W        W14498  18.783   7.178   7.386
 7190W        W14499   3.116   6.140   5.982
 7191W        W14500   9.986   6.055   9.115
 7192W        W14501   4.572   4.560   0.281
 7193W        W14502  16.892   2.694   6.604
 7194W        W14503  12.573   4.491   9.597
 7195W        W14504   7.059   9.544   8.986
 7196W        W14505  11.333   8.773   8.338
 7197W        W14506   6.537   6.059   8.984
 7198W        W14507   7.552   8.218   8.551
 7199W        W14508  14.592   4.134   6.553
 7200W        W14509   1.860   7.856   9.305
 7201W        W14510   7.089   5.975   9.688
 7202W        W14511   2.110   8.254   7.005
 7203W        W14512  11.561   9.651   9.302
 7204W        W14513  15.354   1.182   0.313
 7205W        W14514  17.853   9.221   6.832
 7206W        W14515  14.787   6.458   0.628
 7207W        W14516  17.972   4.744   9.401
 7208W        W14517  15.799   5.391   8.829
 7209W        W14518  18.892   9.959   6.428
 7210W        W14519   3.722   7.270   9.361
 7211W        W14520   4.662   9.282   7.868
 7212W        W14521   2.927   4.980   6.929
 7213W        W14522  17.775   1.249   9.493
 7214W        W14523  11.194   6.186   9.071
 7215W        W14524   6.700   5.654   0.898
 7216W        W14525   2.585   8.420   7.032
 7217W        W14526  19.967   0.830   0.364
 7218W        W14527  18.770   7.962   8.490
 7219W        W14528   4.771   8.741   0.830
 7220W        W14529   1.773   1.216   7.784
 7221W        W14530  17.824   0.036   8.068
 7222W        W14531   4.199   6.466   8.920
 7223W        W14532   0.901   7.135   6.688
 7224W        W14533   4.759   6.077   7.542
 7225W        W14534   5.376   6.265   8.327
 7226W        W14535  14.834   1.186   6.300
 7227W        W14536  17.923   1.856   6.671
 7228W        W14537  11.509   7.754   9.143
 7229W        W14538   4.618   5.610   7.288
 7230W        W14539   5.164   2.732   8.013
 7231W        W14540   7.585   2.520   9.331
 7232W        W14541  10.751   2.082   9.024
 7233W        W14542  15.637   5.350   7.462
 7234W        W14543  11.969   0.803   6.492
 7235W        W14544  13.939   3.586   0.387
 7236W        W14545   1.131   9.328   6.368
 7237W        W14546   5.397   2.489   6.164
 7238W        W14547  11.639   9.741   7.575
 7239W        W14548   4.533   8.303   0.888
 7240W        W14549  10.517   1.714   0.056
 7241W        W14550  14.407   0.340   8.452
 7242W        W14551   1.669   9.226   0.768
 7243W        W14552  12.658   9.090   0.294
 7244W        W14553  19.555   2.688   8.146
 7245W        W14554   5.107   9.922   6.216
 7246W        W14555  18.144   6.493   7.321
 7247W        W14556  10.896   7.742   6.723
 7248W        W14557  19.985   6.498   5.937
 7249W        W14558   9.327   4.984   8.459
 7250W        W14559  16.755   4.364   9.141
 7251W        W14560   4.041   3.623   0.115
 7252W        W14561   9.382   4.647   6.996
 7253W        W14562  16.806   7.919   7.376
 7254W        W14563  14.750   9.844   0.502
 7255W        W14564  18.946   1.226   6.935
 7256W        W14565   1.817   9.408   0.231
 7257W        W14566   7.140   0.908   0.404
 7258W        W14567  17.282   6.891   6.993
 7259W        W14568   5.844   4.483   0.868
 7260W        W14569  10.991   9.674   8.084
 7261W        W14570  18.544   3.505   0.021
 7262W        W14571  16.769   3.431   0.577
 7263W        W14572  18.162   3.152   6.747
 7264W        W14573  19.631   7.249   6.894
 7265W        W14574   5.467   0.767   7.953
 7266W        W14575  13.387   9.670   9.717
 7267W        W14576  10.890   7.400   7.137
 7268W        W14577  16.570   2.683   7.862
 7269W        W14578  12.777   1.830   0.936
 7270W        W14579  19.216   7.341   0.323
 7271W        W14580  13.057   9.799   6.853
 7272W        W14581   6.777   7.571   0.573
 7273W        W14582   8.036   1.307   9.755
 7274W        W14583  16.113   0.270   8.070
 7275W        W14584   5.359   9.226   0.434
 7276W        W14585  15.898   3.129   6.401
 7277W        W14586  18.651   2.194   0.025
 7278W        W14587  16.030   5.636   6.597
 7279W        W14588  11.813   9.953   8.278
 7280W        W14589  12.537   6.864   0.733
 7281W        W14590   5.097   3.670   9.800
 7282W        W14591   1.571   7.436   0.221
 7283W        W14592   7.606   5.440   9.794
 7284W        W14593  13.191   5.140   8.254
 7285W        W14594  14.355   5.920   7.444
 7286W        W14595   2.047   5.535   9.692
 7287W        W14596   2.265   2.313   0.852
 7288W        W14597   1.896   1.162   9.353
 7289W        W14598   4.761   1.158   5.813
 7290W        W14599  11.553   0.329   5.945
 7291W        W14600   3.467   0.193   7.574
 7292W        W14601  17.090   5.954   8.849
 7293W        W14602  13.465   1.368   8.226
 7294W        W14603   0.897   6.329   8.752
 7295W        W14604   7.449   8.991   9.585
 7296W        W14605  12.471   4.727   7.128
 7297W        W14606  18.804   0.902   6.138
 7298W        W14607  17.393   2.117   7.656
 7299W        W14608  17.362   1.680   7.919
 7300W        W14609  19.275   9.621   0.610
 7301W        W14610  13.468   0.816   8.037
 7302W        W14611   2.100   7.652   8.039
 7303W        W14612   0.945   4.993   9.199
 7304W        W14613  16.545   7.592   9.467
 7305W        W14614   8.855   4.219   0.970
 7306W        W14615   9.411   5.972   9.934
 7307W        W14616  18.484   5.615   6.476
 7308W        W14617  12.255   4.679   1.421
 7309W        W14618   5.731   8.872   7.173
 7310W        W14619  14.247   2.485   9.270
 7311W        W14620   9.389   3.029   0.675
 7312W        W14621   2.285   2.499   9.200
 7313W        W14622  15.048   7.419   7.517
 7314W        W14623  13.875   7.430   9.724
 7315W        W14624  16.328   4.576   0.952
 7316W        W14625  18.380   4.911   0.179
 7317W        W14626  17.659   2.254   1.008
 7318W        W14627  18.284   7.847   5.981
 7319W        W14628  13.938   3.614   9.860
 7320W        W14629  12.314   2.302   9.294
 7321W        W14630   2.873   4.994   9.228
 7322W        W14631   5.758   7.354   6.393
 7323W        W14632  11.130   6.255   0.131
 7324W        W14633  12.556   3.630   9.635
 7325W        W14634   9.381   7.186   6.737
 7326W        W14635   1.244   4.996   8.751
 7327W        W14636  10.495   2.707   7.090
 7328W        W14637   0.815   5.321   8.824
 7329W        W14638  13.891   9.325   7.628
 7330W        W14639   7.499   0.677   0.706
 7331W        W14640   5.259   7.784   0.771
 7332W        W14641   3.433   1.171   9.576
 7333W        W14642   1.381   8.890   6.296
 7334W        W14643  11.682   6.029   8.979
 7335W        W14644  13.187   4.048   9.089
 7336W        W14645   7.618   9.650   8.795
 7337W        W14646   3.381   6.843   8.499
 7338W        W14647  13.442   9.452   6.863
 7339W        W14648  16.087   5.777   8.021
 7340W        W14649   0.704   5.309   7.191
 7341W        W14650   3.887   3.275   7.577
 7342W        W14651   5.578   5.564   9.383
 7343W        W14652   9.216   4.663   9.749
 7344W        W14653   7.152   2.313   7.095
 7345W        W14654   8.231   3.987   9.271
 7346W        W14655  16.241   3.464   9.885
 7347W        W14656   5.057   1.990   6.810
 7348W        W14657  18.822   8.915   8.282
 7349W        W14658   1.186   9.255   0.349
 7350W        W14659  14.061   7.398   8.414
 7351W        W14660   8.938   2.204   8.366
 7352W        W14661   0.999   0.277   8.646
 7353W        W14662  10.898   5.698   7.599
 7354W        W14663   8.242   9.507   9.682
 7355W        W14664  19.066   9.567   0.129
 7356W        W14665   9.130   1.772   0.409
 7357W        W14666   2.785   0.527   7.080
 7358W        W14667  13.457   0.119   9.489
 7359W        W14668  13.002   8.433   8.219
 7360W        W14669  18.465   0.418   7.741
 7361W        W14670   2.373   5.530   7.853
 7362W        W14671  10.542   4.368   6.315
 7363W        W14672  18.360   3.022   9.208
 7364W        W14673   7.911   5.374   7.138
 7365W        W14674   5.924   3.284   6.359
 7366W        W14675   6.766   2.190   8.316
 7367W        W14676   1.210   8.337   7.064
 7368W        W14677  10.103   9.139   0.610
 7369W        W14678   8.526   7.883   7.580
 7370W        W14679   1.444   0.860   7.501
 7371W        W14680   5.817   7.901   8.183
 7372W        W14681   9.664   0.680   0.282
 7373W        W14682   2.898   7.555   0.547
 7374W        W14683   2.422   0.771   6.780
 7375W        W14684  16.591   6.125   5.901
 7376W        W14685   1.044   1.147   7.363
 7377W        W14686   4.448   8.311   8.738
 7378W        W14687   1.241   6.717   8.768
 7379W        W14688  13.638   0.306   6.787
 7380W        W14689   9.043   8.732   8.809
 7381W        W14690  15.628   7.989   0.875
 7382W        W14691  14.562   2.067   7.133
 7383W        W14692  15.205   7.126   7.122
 7384W        W14693   7.001   5.143   9.041
 7385W        W14694  12.937   0.258   1.016
 7386W        W14695  15.233   0.644   1.019
 7387W        W14696  18.680   8.390   0.994
 7388W        W14697   8.920   9.865   8.549
 7389W        W14698  14.817   2.873   6.038
 7390W        W14699   0.302   4.150   9.735
 7391W        W14700  14.468   2.730   8.885
 7392W        W14701  17.336   8.522   7.501
 7393W        W14702  19.781   5.902   7.386
 7394W        W14703  13.964   0.238   9.232
 7395W        W14704   4.247   7.165   0.482
 7396W        W14705  14.829   1.665   9.523
 7397W        W14706  18.332   5.839   0.104
 7398W        W14707  16.343   3.679   0.408
 7399W        W14708   9.894   3.044   0.584
 7400W        W14709   2.251   6.555   8.860
 7401W        W14710  18.963   2.660   6.354
 7402W        W14711  15.097   8.513   6.243
 7403W        W14712  10.510   3.031   7.489
 7404W        W14713   5.311   6.495   9.094
 7405W        W14714  14.141   5.412   8.362
 7406W        W14715  14.321   5.921   8.317
 7407W        W14716   8.953   4.876   7.305
 7408W        W14717   4.054   7.779   7.006
 7409W        W14718   9.097   7.154   6.327
 7410W        W14719   2.084   3.698   9.789
 7411W        W14720  12.235   4.254   7.289
 7412W        W14721  10.524   2.378   6.678
 7413W        W14722   2.591   7.500   6.625
 7414W        W14723  11.453   3.251   7.881
 7415W        W14724   7.447   6.938   9.065
 7416W        W14725  16.547   6.637   8.296
 7417W        W14726   9.118   2.649   0.117
 7418W        W14727  13.139   8.454   9.619
 7419W        W14728   9.604   2.605   9.322
 7420W        W14729  11.849   0.462   6.868
 7421W        W14730   0.150   7.916   8.883
 7422W        W14731  10.233   6.819   8.025
 7423W        W14732  11.579   9.987   6.789
 7424W        W14733  13.213   5.109   6.345
 7425W        W14734  14.765   6.892   8.265
 7426W        W14735  18.218   9.967   7.766
 7427W        W14736   3.270   5.854   9.339
 7428W        W14737   3.055   7.544   6.411
 7429W        W14738   1.955   8.772   9.251
 7430W        W14739  19.142   0.903   7.688
 7431W        W14740   8.971   1.660   9.485
 7432W        W14741   7.083   7.510   6.504
 7433W        W14742   3.282   8.007   0.437
 7434W        W14743  11.797   6.125   8.461
 7435W        W14744   5.336   9.750   9.320
 7436W        W14745  15.448   2.848   9.888
 7437W        W14746   4.409   8.775   6.263
 7438W        W14747  18.946   3.972   6.447
 7439W        W14748   8.153   0.347   7.281
 7440W        W14749  10.357   3.745   7.005
 7441W        W14750  16.321   1.792   5.847
 7442W        W14751  19.696   7.284   6.310
 7443W        W14752   1.300   7.043   6.328
 7444W        W14753  13.836   8.788   8.436
 7445W        W14754  13.838   6.550   8.799
 7446W        W14755  13.080   3.906   7.511
 7447W        W14756   5.657   4.005   8.621
 7448W        W14757  12.318   0.457   6.622
 7449W        W14758  16.433   3.024   6.167
 7450W        W14759   3.147   3.606   9.021
 7451W        W14760  10.970   0.202   0.830
 7452W        W14761  16.165   9.152   7.365
 7453W        W14762   3.080   0.845   0.281
 7454W        W14763   6.176   7.285   0.701
 7455W        W14764   4.275   2.846   8.056
 7456W        W14765  18.671   2.215   8.429
 7457W        W14766   5.942   3.680   9.341
 7458W        W14767  12.319   7.518   0.167
 7459W        W14768   2.778   4.452   9.859
 7460W        W14769   6.445   1.606   7.752
 7461W        W14770   9.491   2.832   9.776
 7462W        W14771  16.846   1.258   0.004
 7463W        W14772   9.526   3.172   7.156
 7464W        W14773  15.087   5.005   0.492
 7465W        W14774  15.301   7.660   0.190
 7466W        W14775  18.950   5.982   0.632
 7467W        W14776  12.296   1.736   6.609
 7468W        W14777  12.063   6.977   8.698
 7469W        W14778  16.682   7.998   6.452
 7470W        W14779  16.569   3.601   8.423
 7471W        W14780   8.103   1.119   8.377
 7472W        W14781   5.504   2.967   6.916
 7473W        W14782  10.975   0.375   8.814
 7474W        W14783  12.415   2.673   0.186
 7475W        W14784  15.970   6.413   7.341
 7476W        W14785   6.495   8.295   8.294
 7477W        W14786  14.011   2.590   7.431
 7478W        W14787   3.076   3.559   9.521
 7479W        W14788   9.067   0.906   6.408
 7480W        W14789  10.036   1.067   7.037
 7481W        W14790   4.108   7.986   9.905
 7482W        W14791   8.721   0.676   7.161
 7483W        W14792  15.826   6.047   8.379
 7484W        W14793  14.851   0.260   9.227
 7485W        W14794   7.372   8.468   8.149
 7486W        W14795  13.144   4.053   7.989
 7487W        W14796  17.757   8.705   6.680
 7488W        W14797   5.814   8.139   8.904
 7489W        W14798  16.542   2.168   7.589
 7490W        W14799  10.016   0.052   9.719
 7491W        W14800   4.918   2.787   0.735
 7492W        W14801   1.385   8.495   8.835
 7493W        W14802   8.087   2.671   6.420
 7494W        W14803  19.250   7.775   0.732
 7495W        W14804  16.401   2.633   7.386
 7496W        W14805   8.216   5.598   7.949
 7497W        W14806   9.785   4.486   0.784
 7498W        W14807  13.940   4.504   9.374
 7499W        W14808  17.802   1.800   8.182
 7500W        W14809  12.423   8.417   8.392
 7501W        W14810  14.305   2.817   6.629
 7502W        W14811  12.614   9.775   8.111
 7503W        W14812  11.476   1.653   9.056
 7504W        W14813   8.294   4.040   7.016
 7505W        W14814   0.196   1.630   7.089
 7506W        W14815   0.102   5.913   9.201
 7507W        W14816   7.667   8.867   6.635
 7508W        W14817  15.078   6.476   8.224
 7509W        W14818  11.439   8.256   9.438
 7510W        W14819   0.105   3.165   6.974
 7511W        W14820   4.565   1.331   8.755
 7512W        W14821   6.569   9.239   6.360
 7513W        W14822   4.812   4.551   9.813
 7514W        W14823   1.307   3.597   7.930
 7515W        W14824  14.445   2.555   9.758
 7516W        W14825  13.490   3.983   0.992
 7517W        W14826  12.357   8.558   6.335
 7518W        W14827  18.087   6.040   7.952
 7519W        W14828  10.244   6.281   7.864
 7520W        W14829   6.844   9.494   8.545
 7521W        W14830  18.278   1.369   0.771
 7522W        W14831   5.678   4.942   8.640
 7523W        W14832   0.354   4.594   9.996
 7524W        W14833  14.879   7.984   0.376
 7525W        W14834   8.419   3.582   7.271
 7526W        W14835  14.587   6.776   7.007
 7527W        W14836   4.574   7.822   6.992
 7528W        W14837  10.467   3.700   9.030
 7529W        W14838  16.476   3.010   9.711
 7530W        W14839  19.741   3.216   9.957
 7531W        W14840  19.199   4.970   7.220
 7532W        W14841  13.157   6.948   9.765
 7533W        W14842   2.632   7.327   9.302
 7534W        W14843   5.204   9.704   0.970
 7535W        W14844  16.443   2.665   8.873
 7536W        W14845   6.779   3.460   0.719
 7537W        W14846   9.592   0.406   7.939
 7538W        W14847  15.459   8.442   8.354
 7539W        W14848   1.676   4.089   5.988
 7540W        W14849   0.795   4.501   0.923
 7541W        W14850   9.903   8.683   9.736
 7542W        W14851   7.197   9.878   6.163
 7543W        W14852  19.867   0.331   7.318
 7544W        W14853   2.237   5.183   6.355
 7545W        W14854  19.730   1.736   6.128
 7546W        W14855   9.379   6.297   6.683
 7547W        W14856  15.746   6.722   7.694
 7548W        W14857   4.211   2.686   0.117
 7549W        W14858   3.307   8.817   0.866
 7550W        W14859   7.556   7.803   7.052
 7551W        W14860   7.453   4.033   0.201
 7552W        W14861   1.314   7.876   8.449
 7553W        W14862  18.714   6.933   8.285
 7554W        W14863  10.811   2.282   7.516
 7555W        W14864   1.736   6.587   6.786
 7556W        W14865  14.582   8.516   9.890
 7557W        W14866   7.257   2.945   9.309
 7558W        W14867   7.042   7.241   6.057
 7559W        W14868  14.289   7.165   0.679
 7560W        W14869   5.494   0.339   9.917
 7561W        W14870  12.513   5.241   8.813
 7562W        W14871   9.618   0.742   8.320
 7563W        W14872   8.920   3.926   0.552
 7564W        W14873   3.552   4.621   0.270
 7565W        W14874   6.164   0.771   7.483
 7566W        W14875  18.659   2.080   6.851
 7567W        W14876  12.281   9.616   9.973
 7568W        W14877  11.081   5.044   6.284
 7569W        W14878  13.496   9.664   8.130
 7570W        W14879   7.672   7.816   0.454
 7571W        W14880  11.659   3.518   7.250
 7572W        W14881   6.009   5.968   8.231
 7573W        W14882  19.369   0.817   6.368
 7574W        W14883  18.472   9.876   8.606
 7575W        W14884   3.118   1.515   0.777
 7576W        W14885   3.043   4.126   7.785
 7577W        W14886  15.833   9.160   8.699
 7578W        W14887   9.484   1.556   7.498
 7579W        W14888  12.679   7.223   0.374
 7580W        W14889  16.117   9.088   0.800
 7581W        W14890   0.847   3.339   7.961
 7582W        W14891   9.703   4.304   6.744
 7583W        W14892  17.826   1.292   5.965
 7584W        W14893  13.534   1.426   8.750
 7585W        W14894  15.033   9.504   0.202
 7586W        W14895   9.343   7.588   6.152
 7587W        W14896  18.213   7.818   0.173
 7588W        W14897   4.670   2.744   9.886
 7589W        W14898  15.304   6.318   9.925
 7590W        W14899  19.684   5.173   8.870
 7591W        W14900  17.345   0.804   6.894
 7592W        W14901   7.331   8.799   8.589
 7593W        W14902  19.428   9.271   7.544
 7594W        W14903  17.570   8.609   9.691
 7595W        W14904   0.370   5.469   7.556
 7596W        W14905  17.404   6.494   8.287
 7597W        W14906  19.118   2.145   6.602
 7598W        W14907  12.551   0.062   9.929
 7599W        W14908   6.235   2.739   6.522
 7600W        W14909   7.194   6.437   8.907
 7601W        W14910   3.032   2.295   7.931
 7602W        W14911   0.639   5.952   9.290
 7603W        W14912  12.823   2.291   0.705
 7604W        W14913   0.070   3.901   8.905
 7605W        W14914   5.118   9.919   8.863
 7606W        W14915   5.372   8.380   6.146
 7607W        W14916  18.300   6.493   7.809
 7608W        W14917   1.238   3.113   7.691
 7609W        W14918   4.122   9.953   9.963
 7610W        W14919  14.085   6.095   8.751
 7611W        W14920  18.669   1.264   9.489
 7612W        W14921  10.819   7.446   8.538
 7613W        W14922   6.491   7.544   7.720
 7614W        W14923  11.168   1.091   6.168
 7615W        W14924   3.142   3.679   7.521
 7616W        W14925  14.925   4.989   8.919
 7617W        W14926   2.700   7.223   7.051
 7618W        W14927  10.760   3.365   6.738
 7619W        W14928   4.455   3.216   8.935
 7620W        W14929   9.753   0.203   0.145
 7621W        W14930   2.032   0.980   8.889
 7622W        W14931  19.610   2.703   9.691
 7623W        W14932   4.272   4.960   0.563
 7624W        W14933   0.925   1.578   8.680
 7625W        W14934  18.223   7.697   7.890
 7626W        W14935  15.281   9.704   7.778
 7627W        W14936   0.994   7.939   6.777
 7628W        W14937  12.512   1.790   6.141
 7629W        W14938   3.127   0.240   0.243
 7630W        W14939   6.261   0.672   8.354
 7631W        W14940  12.380   9.794   0.805
 7632W        W14941  12.471   1.626   8.800
 7633W        W14942   4.588   2.086   6.574
 7634W        W14943  14.603   2.165   0.512
 7635W        W14944   1.345   5.207   7.463
 7636W        W14945   5.733   1.568   0.514
 7637W        W14946   9.853   4.961   8.428
 7638W        W14947  10.939   1.429   7.851
 7639W        W14948  16.191   7.809   8.719
 7640W        W14949   9.909   5.964   0.860
 7641W        W14950   3.396   2.531   7.657
 7642W        W14951  12.737   4.053   9.341
 7643W        W14952  17.924   6.066   0.875
 7644W        W14953   8.275   8.723   9.460
 7645W        W14954  14.401   0.340   8.966
 7646W        W14955  14.858   6.780   9.392
 7647W        W14956  18.330   1.132   6.736
 7648W        W14957   1.180   0.733   6.589
 7649W        W14958  18.032   4.214   7.623
 7650W        W14959  10.403   5.628   7.494
 7651W        W14960  10.740   7.979   0.224
 7652W        W14961  14.752   6.580   7.825
 7653W        W14962  12.374   3.199   9.420
 7654W        W14963   8.998   1.714   7.459
 7655W        W14964  19.501   8.686   9.294
 7656W        W14965   3.561   3.160   8.492
 7657W        W14966  17.217   3.612   0.760
 7658W        W14967  16.887   4.109   9.925
 7659W        W14968  10.667   8.921   0.184
 7660W        W14969   1.128   7.104   9.535
 7661W        W14970   6.377   6.620   0.481
 7662W        W14971   4.569   3.633   9.857
 7663W        W14972  17.985   6.884   0.243
 7664W        W14973  12.366   8.719   0.886
 7665W        W14974  14.413   3.679   9.667
 7666W        W14975  19.196   2.689   0.530
 7667W        W14976  16.797   8.281   0.593
 7668W        W14977  14.375   7.140   9.673
 7669W        W14978   5.731   5.502   8.913
 7670W        W14979   6.191   9.969   8.935
 7671W        W14980  19.691   6.791   7.405
 7672W        W14981  14.713   8.393   7.672
 7673W        W14982   5.476   7.562   7.991
 7674W        W14983  12.252   0.174   7.069
 7675W        W14984   3.365   4.400   8.588
 7676W        W14985   4.984   8.056   6.107
 7677W        W14986  13.167   4.718   8.828
 7678W        W14987   0.851   8.251   7.923
 7679W        W14988   9.397   8.385   9.078
 7680W        W14989  13.360   6.907   8.446
 7681W        W14990  16.039   3.020   9.409
 7682W        W14991   0.776   0.842   6.266
 7683W        W14992  14.597   2.149   8.988
 7684W        W14993  15.346   3.196   7.618
 7685W        W14994   2.823   0.303   8.844
 7686W        W14995  17.423   9.480   8.742
 7687W        W14996   2.713   1.514   8.286
 7688W        W14997  10.414   5.916   0.927
 7689W        W14998   9.929   7.173   8.272
 7690W        W14999  13.329   4.847   0.592
 7691W        W15000   0.730   4.821   8.750
 7692W        W15001   3.775   7.919   7.447
 7693W        W15002   2.228   3.888   8.540
 7694W        W15003  15.903   9.890   0.209
 7695W        W15004  14.462   0.266   6.149
 7696W        W15005  10.605   9.241   0.639
 7697W        W15006  19.827   6.882   0.337
 7698W        W15007  14.802   9.661   7.967
 7699W        W15008   2.536   0.922   9.572
 7700W        W15009  16.862   8.011   8.224
 7701W        W15010   2.957   6.368   7.934
 7702W        W15011   7.487   3.501   8.387
 7703W        W15012   5.316   3.695   7.041
 7704W        W15013  17.293   1.335   6.830
 7705W        W15014   6.114   6.031   9.267
 7706W        W15015   0.728   5.517   8.117
 7707W        W15016  10.443   2.195   7.157
 7708W        W15017  12.979   2.132   8.245
 7709W        W15018  16.803   7.066   6.800
 7710W        W15019   2.118   7.420   6.856
 7711W        W15020   2.193   3.792   6.510
 7712W        W15021   2.447   0.858   8.025
 7713W        W15022  13.233   2.294   0.338
 7714W        W15023   1.206   6.627   7.707
 7715W        W15024   6.568   7.020   7.830
 7716W        W15025  14.274   1.209   7.044
 7717W        W15026  12.553   2.192   9.745
 7718W        W15027   7.484   4.644   6.149
 7719W        W15028   4.803   4.218   1.038
 7720W        W15029   6.718   1.721   0.468
 7721W        W15030   9.479   1.408   6.237
 7722W        W15031  16.048   1.236   7.384
 7723W        W15032   7.253   4.163   6.489
 7724W        W15033  14.462   4.696   8.761
 7725W        W15034   1.133   1.138   8.781
 7726W        W15035  16.403   6.028   0.489
 7727W        W15036   1.388   2.615   7.894
 7728W        W15037   0.131   7.996   7.440
 7729W        W15038  12.663   3.957   7.845
 7730W        W15039  10.961   4.180   6.568
 7731W        W15040  12.550   4.724   8.127
 7732W        W15041  12.915   7.080   6.341
 7733W        W15042   6.683   2.334   7.298
 7734W        W15043  19.640   6.053   8.985
 7735W        W15044   8.496   0.064   7.928
 7736W        W15045   7.015   3.038   8.852
 7737W        W15046  10.862   0.223   7.353
 7738W        W15047  12.337   8.051   0.201
 7739W        W15048  12.146   6.587   0.030
 7740W        W15049   4.100   0.629   6.610
 7741W        W15050   4.831   5.851   6.012
 7742W        W15051  12.382   2.062   6.988
 7743W        W15052   6.900   2.581   9.116
 7744W        W15053  13.993   8.041   0.979
 7745W        W15054   0.335   0.640   6.555
 7746W        W15055   0.326   4.447   6.971
 7747W        W15056  10.126   9.433   6.119
 7748W        W15057   4.956   8.470   0.021
 7749W        W15058  10.850   5.898   0.658
 7750W        W15059   1.919   8.445   8.839
 7751W        W15060  12.321   5.173   7.846
 7752W        W15061   7.964   0.381   0.135
 7753W        W15062   2.773   8.534   8.014
 7754W        W15063   5.722   0.524   6.228
 7755W        W15064   5.271   6.316   0.935
 7756W        W15065  14.799   6.311   0.122
 7757W        W15066  16.180   3.185   8.369
 7758W        W15067   8.846   3.094   7.583
 7759W        W15068  13.845   5.811   7.476
 7760W        W15069   8.160   0.819   8.965
 7761W        W15070  17.454   4.634   7.008
 7762W        W15071  11.322   9.802   0.684
 7763W        W15072  13.632   4.038   8.831
 7764W        W15073  16.512   4.420   7.998
 7765W        W15074   9.914   8.381   0.163
 7766W        W15075   3.702   2.880   7.873
 7767W        W15076   7.769   2.202   7.503
 7768W        W15077   2.689   7.921   6.294
 7769W        W15078   4.242   1.036   7.965
 7770W        W15079  11.260   4.144   9.046
 7771W        W15080  15.205   7.870   8.784
 7772W        W15081  10.788   4.509   7.524
 7773W        W15082   7.205   4.741   0.649
 7774W        W15083  10.883   5.391   9.224
 7775W        W15084  11.532   6.094   9.495
 7776W        W15085  18.961   6.856   9.277
 7777W        W15086  11.741   8.886   0.188
 7778W        W15087  11.047   4.484   9.394
 7779W        W15088   9.430   5.355   6.558
 7780W        W15089  18.084   3.617   6.549
 7781W        W15090  18.685   0.389   0.223
 7782W        W15091  18.826   3.089   8.938
 7783W        W15092  17.415   6.426   9.290
 7784W        W15093  15.295   7.930   6.536
 7785W        W15094  17.532   9.140   6.440
 7786W        W15095   6.050   0.351   9.247
 7787W        W15096   2.873   6.833   8.479
 7788W        W15097   3.989   3.008   6.067
 7789W        W15098   6.846   4.468   7.909
 7790W        W15099   5.805   6.982   7.250
 7791W        W15100   2.013   2.064   9.418
 7792W        W15101  19.970   3.841   6.229
 7793W        W15102   7.206   7.855   8.799
 7794W        W15103   1.654   7.754   0.628
 7795W        W15104  18.780   1.741   9.713
 7796W        W15105   8.735   5.584   8.914
 7797W        W15106  13.358   2.794   0.651
 7798W        W15107  10.413   4.637   7.183
 7799W        W15108  14.339   1.765   8.691
 7800W        W15109   7.212   8.849   6.908
 7801W        W15110  16.991   1.707   0.210
 7802W        W15111   1.355   3.144   8.173
 7803W        W15112   8.944   3.918   6.901
 7804W        W15113   4.874   4.464   7.040
 7805W        W15114  10.800   0.282   0.332
 7806W        W15115  10.564   9.860   0.161
 7807W        W15116  15.503   4.212   9.158
 7808W        W15117   2.484   5.030   0.833
 7809W        W15118  10.965   8.791   8.843
 7810W        W15119   2.103   4.854   1.132
 7811W        W15120   4.102   8.185   9.096
 7812W        W15121  16.210   7.843   6.600
 7813W        W15122  19.658   2.706   0.736
 7814W        W15123   8.109   9.829   8.871
 7815W        W15124  14.978   1.202   9.332
 7816W        W15125  13.707   5.446   6.283
 7817W        W15126  12.977   2.046   6.232
 7818W        W15127  13.550   5.821   0.491
 7819W        W15128   2.098   7.380   9.316
 7820W        W15129   4.048   6.829   0.806
 7821W        W15130  10.828   2.814   6.678
 7822W        W15131   8.423   1.607   6.086
 7823W        W15132   2.263   9.767   8.975
 7824W        W15133  11.256   5.325   7.760
 7825W        W15134  19.533   2.227   9.446
 7826W        W15135   3.177   7.365   0.155
 7827W        W15136  19.613   3.120   8.419
 7828W        W15137  10.863   0.356   6.859
 7829W        W15138  14.626   2.013   6.511
 7830W        W15139   0.176   7.417   8.953
 7831W        W15140   9.063   3.576   0.163
 7832W        W15141  16.436   1.273   8.166
 7833W        W15142  13.349   5.870   9.233
 7834W        W15143  14.169   4.886   0.065
 7835W        W15144  10.581   0.731   0.111
 7836W        W15145   8.950   3.538   7.281
 7837W        W15146  10.349   1.652   7.209
 7838W        W15147   2.142   7.960   8.856
 7839W        W15148  19.950   9.922   6.499
 7840W        W15149   3.040   4.964   9.940
 7841W        W15150   1.993   2.503   8.743
 7842W        W15151  11.011   4.326   7.069
 7843W        W15152   6.751   3.826   9.002
 7844W        W15153  12.958   3.534   7.871
 7845W        W15154  16.769   9.296   7.016
 7846W        W15155   9.393   9.112   8.863
 7847W        W15156   0.177   0.568   9.985
 7848W        W15157  13.525   1.536   0.862
 7849W        W15158   5.766   7.673   9.162
 7850W        W15159   1.016   4.888   7.215
 7851W        W15160   8.863   9.156   7.965
 7852W        W15161   3.242   6.360   7.016
 7853W        W15162  17.436   3.061   9.699
 7854W        W15163   5.632   1.018   6.133
 7855W        W15164   4.649   2.185   8.518
 7856W        W15165  19.055   3.633   6.051
 7857W        W15166  10.122   4.072   8.841
 7858W        W15167  18.180   9.952   9.031
 7859W        W15168   3.552   3.748   0.327
 7860W        W15169  17.691   3.696   6.136
 7861W        W15170  14.045   7.212   7.950
 7862W        W15171   1.139   1.641   6.574
 7863W        W15172   8.171   0.396   6.676
 7864W        W15173   7.718   4.219   6.300
 7865W        W15174   0.549   6.417   0.009
 7866W        W15175  13.401   0.708   7.076
 7867W        W15176  19.231   7.972   6.315
 7868W        W15177   7.593   8.781   7.675
 7869W        W15178   7.688   9.715   6.189
 7870W        W15179   8.851   9.417   0.134
 7871W        W15180   0.166   6.499   0.475
 7872W        W15181  12.656   2.375   7.329
 7873W        W15182  15.920   3.893   9.065
 7874W        W15183  17.089   6.009   8.144
 7875W        W15184  15.132   6.140   7.841
 7876W        W15185  14.415   4.945   8.281
 7877W        W15186  19.608   8.280   0.590
 7878W        W15187  15.680   9.324   7.386
 7879W        W15188   3.340   2.267   9.640
 7880W        W15189  14.575   3.923   9.244
 7881W        W15190  19.687   8.352   8.339
 7882W        W15191   3.331   4.646   0.733
 7883W        W15192   0.628   9.331   0.272
 7884W        W15193  11.888   2.872   8.606
 7885W        W15194   3.803   3.146   6.552
 7886W        W15195   4.038   3.661   8.544
 7887W        W15196   6.376   1.943   7.402
 7888W        W15197   0.611   7.725   9.006
 7889W        W15198  12.027   6.568   8.380
 7890W        W15199   2.238   6.086   6.152
 7891W        W15200   7.935   5.989   7.037
 7892W        W15201   0.415   5.956   8.786
 7893W        W15202   6.813   7.344   9.583
 7894W        W15203   0.314   6.775   9.633
 7895W        W15204  16.940   1.639   5.921
 7896W        W15205  19.440   9.569   7.101
 7897W        W15206   6.274   5.048   8.344
 7898W        W15207  16.277   3.488   6.299
 7899W        W15208   8.781   2.148   6.650
 7900W        W15209   6.128   1.367   9.300
 7901W        W15210   3.529   5.096   0.856
 7902W        W15211   9.406   8.309   0.227
 7903W        W15212  11.833   0.645   9.862
 7904W        W15213  12.258   6.648   9.055
 7905W        W15214  14.635   3.696   6.824
 7906W        W15215  12.858   8.878   0.764
 7907W        W15216   4.957   0.670   6.882
 7908W        W15217   1.984   4.709   7.974
 7909W        W15218  12.019   4.378   0.127
 7910W        W15219   9.238   5.133   6.977
 7911W        W15220   6.986   3.032   7.925
 7912W        W15221  18.604   2.244   0.564
 7913W        W15222   8.357   1.277   6.813
 7914W        W15223  10.552   9.447   6.412
 7915W        W15224   2.054   2.262   0.167
 7916W        W15225  11.759   2.124   0.594
 7917W        W15226   0.915   5.104   8.351
 7918W        W15227  12.552   1.321   6.332
 7919W        W15228   0.386   9.450   7.979
 7920W        W15229   9.096   2.571   9.198
 7921W        W15230  14.856   5.480   0.582
 7922W        W15231  12.857   8.781   9.908
 7923W        W15232   2.285   7.221   7.842
 7924W        W15233   3.689   5.512   6.775
 7925W        W15234   3.464   9.432   8.790
 7926W        W15235  17.422   9.032   7.527
 7927W        W15236   9.388   8.639   9.743
 7928W        W15237   4.523   2.993   7.102
 7929W        W15238  19.581   0.249   7.755
 7930W        W15239   9.447   4.564   0.192
 7931W        W15240  17.287   6.046   7.588
 7932W        W15241  12.290   2.634   6.430
 7933W        W15242  19.050   3.574   7.502
 7934W        W15243   6.127   4.190   8.552
 7935W        W15244  12.319   1.508   7.502
 7936W        W15245   9.224   7.143   0.752
 7937W        W15246   0.347   4.620   7.946
 7938W        W15247   1.436   0.868   0.907
 7939W        W15248   2.870   6.892   0.169
 7940W        W15249   7.226   1.660   9.883
 7941W        W15250   3.340   8.871   7.514
 7942W        W15251   3.801   3.620   6.827
 7943W        W15252   4.431   3.583   0.465
 7944W        W15253   7.057   7.590   0.995
 7945W        W15254  16.785   6.894   9.487
 7946W        W15255   3.715   8.836   9.622
 7947W        W15256   9.772   4.127   9.224
 7948W        W15257   3.453   5.977   0.780
 7949W        W15258   5.101   1.866   9.199
 7950W        W15259  18.459   9.518   8.974
 7951W        W15260  19.215   7.389   9.817
 7952W        W15261  15.529   5.475   1.323
 7953W        W15262  14.579   1.195   7.452
 7954W        W15263   4.560   5.442   8.271
 7955W        W15264   1.028   6.781   7.032
 7956W        W15265  12.806   1.698   6.571
 7957W        W15266  13.212   3.058   7.256
 7958W        W15267  18.653   4.408   9.169
 7959W        W15268   7.519   1.013   7.129
 7960W        W15269   4.310   2.405   7.633
 7961W        W15270  14.568   4.436   8.329
 7962W        W15271  11.494   8.600   6.904
 7963W        W15272  15.452   6.941   8.072
 7964W        W15273  19.621   2.179   6.467
 7965W        W15274  11.016   6.519   8.267
 7966W        W15275  13.055   3.318   8.357
 7967W        W15276   2.823   0.603   9.281
 7968W        W15277  11.906   8.746   8.350
 7969W        W15278   2.152   7.985   9.717
 7970W        W15279  13.611   7.356   0.620
 7971W        W15280   4.563   4.556   8.470
 7972W        W15281  18.884   8.072   7.684
 7973W        W15282  16.623   0.834   0.879
 7974W        W15283  16.993   6.963   0.443
 7975W        W15284  11.427   7.807   0.140
 7976W        W15285  13.699   6.791   6.721
 7977W        W15286   2.590   5.502   6.516
 7978W        W15287   2.641   8.186   8.369
 7979W        W15288  19.661   5.580   9.189
 7980W        W15289   8.018   1.880   6.276
 7981W        W15290   3.101   2.522   0.536
 7982W        W15291   5.621   8.798   8.286
 7983W        W15292  14.716   8.640   8.114
 7984W        W15293   0.234   1.230   0.143
 7985W        W15294   7.740   3.416   0.886
 7986W        W15295  18.947   6.993   8.755
 7987W        W15296   5.486   7.747   6.120
 7988W        W15297   2.177   1.212   9.814
 7989W        W15298  13.738   3.209   8.845
 7990W        W15299  12.041   4.392   5.969
 7991W        W15300   3.292   1.766   0.361
 7992W        W15301  13.562   1.001   9.041
 7993W        W15302   7.688   0.787   9.697
 7994W        W15303   7.857   5.546   0.224
 7995W        W15304  19.257   7.113   6.555
 7996W        W15305   2.968   0.414   6.206
 7997W        W15306  13.782   3.188   0.715
 7998W        W15307  15.677   7.269   0.179
 7999W        W15308   4.488   0.559   8.815
 8000W        W15309  11.460   7.176   7.099
 8001W        W15310   7.045   1.250   8.262
 8002W        W15311   1.682   4.335   9.877
 8003W        W15312  11.388   2.072   0.959
 8004W        W15313  18.459   8.347   6.180
 8005W        W15314   5.872   3.093   9.893
 8006W        W15315  19.310   3.100   0.242
 8007W        W15316  12.484   3.148   0.431
 8008W        W15317  11.878   7.996   9.435
 8009W        W15318  15.902   1.405   6.565
 8010W        W15319  10.235   3.417   9.403
 8011W        W15320  18.997   3.430   0.942
 8012W        W15321  17.941   0.390   7.657
 8013W        W15322   2.933   7.748   9.266
 8014W        W15323  15.315   3.174   8.114
 8015W        W15324   0.821   7.824   6.165
 8016W        W15325  10.783   3.352   0.377
 8017W        W15326   7.390   4.172   8.040
 8018W        W15327  19.242   9.685   8.316
 8019W        W15328  14.540   5.046   7.289
 8020W        W15329  11.958   2.566   9.973
 8021W        W15330   6.831   9.168   0.376
 8022W        W15331   5.024   4.393   9.321
 8023W        W15332   0.056   5.353   0.951
 8024W        W15333  17.122   8.622   0.398
 8025W        W15334  16.835   2.441   7.099
 8026W        W15335   7.252   0.015   8.895
 8027W        W15336  12.538   9.245   9.289
 8028W        W15337   2.120   7.403   0.159
 8029W        W15338  14.590   2.705   7.924
 8030W        W15339   0.035   4.474   0.379
 8031W        W15340  16.046   1.747   8.288
 8032W        W15341  12.659   6.686   6.531
 8033W        W15342   8.041   8.729   7.916
 8034W        W15343  17.794   7.808   6.507
 8035W        W15344  18.677   7.839   6.788
 8036W        W15345  14.838   8.331   7.188
 8037W        W15346  18.693   9.188   6.943
 8038W        W15347   5.572   7.064   7.973
 8039W        W15348   5.631   0.153   9.467
 8040W        W15349   4.258   3.383   6.620
 8041W        W15350   5.185   6.115   0.118
 8042W        W15351  12.038   7.430   8.018
 8043W        W15352   5.484   2.156   7.997
 8044W        W15353  16.849   5.396   9.425
 8045W        W15354   6.732   8.609   8.960
 8046W        W15355   3.929   0.386   7.025
 8047W        W15356  13.616   8.165   0.163
 8048W        W15357   8.805   8.186   6.371
 8049W        W15358  15.292   8.239   0.569
 8050W        W15359   0.627   7.883   7.631
 8051W        W15360   8.766   3.705   8.881
 8052W        W15361  15.529   3.625   7.395
 8053W        W15362   5.774   9.692   6.739
 8054W        W15363  17.004   0.836   9.760
 8055W        W15364  13.664   8.934   6.513
 8056W        W15365  11.569   3.151   0.027
 8057W        W15366  11.238   1.245   6.655
 8058W        W15367   0.330   3.187   7.827
 8059W        W15368   2.452   6.405   7.853
 8060W        W15369  16.259   4.614   9.973
 8061W        W15370  10.325   9.626   9.739
 8062W        W15371  12.484   0.619   7.079
 8063W        W15372  12.706   2.924   6.492
 8064W        W15373  13.009   2.188   1.210
 8065W        W15374  16.730   0.521   6.606
 8066W        W15375  13.983   6.360   6.423
 8067W        W15376  15.067   4.188   6.318
 8068W        W15377  10.563   9.998   9.484
 8069W        W15378   7.563   9.781   0.258
 8070W        W15379   4.895   9.531   9.097
 8071W        W15380  10.928   5.570   7.099
 8072W        W15381  13.394   2.793   6.707
 8073W        W15382   5.542   8.145   9.342
 8074W        W15383   9.561   1.501   0.479
 8075W        W15384  16.501   7.788   9.947
 8076W        W15385  18.782   8.307   6.583
 8077W        W15386  15.014   5.029   9.411
 8078W        W15387   3.277   8.137   7.055
 8079W        W15388  18.495   9.243   6.186
 8080W        W15389  12.380   3.901   8.328
 8081W        W15390   9.135   6.400   9.825
 8082W        W15391   4.885   8.582   6.134
 8083W        W15392  15.961   6.550   6.847
 8084W        W15393  11.124   9.237   9.085
 8085W        W15394   9.886   7.765   9.801
 8086W        W15395  18.265   3.235   6.210
 8087W        W15396  13.786   0.716   9.975
 8088W        W15397   8.641   1.846   7.839
 8089W        W15398  16.294   5.333   6.923
 8090W        W15399   8.505   8.374   7.328
 8091W        W15400  16.129   5.055   0.761
 8092W        W15401   5.999   9.478   8.247
 8093W        W15402   5.474   6.927   8.478
 8094W        W15403  12.057   4.541   9.119
 8095W        W15404   7.517   1.191   0.641
 8096W        W15405  16.719   7.048   0.868
 8097W        W15406  16.081   2.331   6.841
 8098W        W15407  12.324   5.593   7.534
 8099W        W15408   7.113   1.237   9.212
 8100W        W15409  17.449   9.487   7.765
 8101W        W15410   2.263   5.465   7.329
 8102W        W15411   7.560   2.590   8.387
 8103W        W15412  10.525   4.547   8.503
 8104W        W15413  19.091   8.937   7.118
 8105W        W15414  10.228   2.656   8.510
 8106W        W15415  11.257   9.249   8.091
 8107W        W15416   1.995   0.165   9.654
 8108W        W15417  18.239   4.427   6.652
 8109W        W15418  17.763   6.270   7.564
 8110W        W15419  18.358   5.568   7.919
 8111W        W15420  12.149   5.686   8.015
 8112W        W15421  18.050   8.709   9.876
 8113W        W15422  14.689   6.388   9.115
 8114W        W15423   0.174   5.099   7.240
 8115W        W15424  10.044   0.720   8.611
 8116W        W15425   8.189   2.599   0.568
 8117W        W15426  12.162   3.590   0.402
 8118W        W15427  18.181   6.046   6.979
 8119W        W15428  15.080   9.520   6.110
 8120W        W15429  16.490   5.830   6.714
 8121W        W15430  17.135   0.393   9.526
 8122W        W15431  13.534   6.849   7.199
 8123W        W15432  15.532   5.067   9.160
 8124W        W15433  11.959   7.756   9.898
 8125W        W15434   8.475   4.474   9.293
 8126W        W15435   6.010   5.660   6.212
 8127W        W15436  16.488   9.714   8.517
 8128W        W15437   1.543   4.830   7.747
 8129W        W15438   5.690   6.036   9.559
 8130W        W15439  17.231   6.527   0.305
 8131W        W15440   4.248   4.126   8.708
 8132W        W15441  10.016   2.749   9.005
 8133W        W15442  17.204   2.628   9.985
 8134W        W15443  15.682   2.908   0.370
 8135W        W15444   3.753   7.175   8.352
 8136W        W15445   3.299   5.589   9.794
 8137W        W15446   4.399   4.664   7.066
 8138W        W15447   9.686   9.807   6.138
 8139W        W15448  17.430   0.642   1.237
 8140W        W15449   9.640   3.437   6.560
 8141W        W15450   4.160   5.495   7.023
 8142W        W15451   4.628   5.463   6.253
 8143W        W15452  14.535   7.504   7.648
 8144W        W15453   9.685   9.596   7.688
 8145W        W15454  13.037   9.392   0.452
 8146W        W15455   6.055   3.999   0.709
 8147W        W15456  17.427   0.361   7.660
 8148W        W15457   6.434   8.446   7.190
 8149W        W15458   4.722   4.070   8.435
 8150W        W15459  19.565   5.862   6.423
 8151W        W15460   7.491   5.135   8.891
 8152W        W15461   5.794   4.904   9.172
 8153W        W15462   9.770   9.492   8.845
 8154W        W15463   9.591   9.271   6.856
 8155W        W15464  10.724   8.999   6.599
 8156W        W15465   0.388   9.815   7.201
 8157W        W15466  14.411   6.850   9.141
 8158W        W15467  19.250   5.462   0.652
 8159W        W15468  19.417   3.761   7.200
 8160W        W15469   2.290   3.395   8.385
 8161W        W15470   4.556   1.127   7.298
 8162W        W15471  13.953   2.760   8.732
 8163W        W15472   9.737   5.715   8.795
 8164W        W15473   6.798   2.043   6.549
 8165W        W15474  17.619   9.827   9.873
 8166W        W15475  14.872   4.078   7.929
 8167W        W15476   0.706   9.892   0.463
 8168W        W15477  17.426   3.094   0.677
 8169W        W15478  16.917   1.570   8.170
 8170W        W15479  12.087   3.762   7.351
 8171W        W15480  17.186   3.368   6.789
 8172W        W15481   1.783   2.545   6.810
 8173W        W15482   5.594   5.638   6.917
 8174W        W15483  11.180   3.307   8.745
 8175W        W15484   3.705   6.379   6.719
 8176W        W15485   4.667   8.754   8.573
 8177W        W15486  17.068   0.271   8.510
 8178W        W15487   8.417   7.335   0.388
 8179W        W15488   0.313   8.398   6.580
 8180W        W15489   4.837   8.955   6.555
 8181W        W15490   2.509   5.434   9.984
 8182W        W15491   1.187   9.942   8.276
 8183W        W15492   2.179   9.941   6.251
 8184W        W15493   8.629   9.530   8.865
 8185W        W15494   6.121   1.373   6.788
 8186W        W15495   1.184   5.197   9.624
 8187W        W15496   7.326   6.854   0.921
 8188W        W15497   2.885   9.647   9.617
 8189W        W15498   6.026   7.717   6.133
 8190W        W15499  17.707   0.888   7.668
 8191W        W15500   1.228   5.651   6.131
 8192W        W15501   3.035   8.479   6.734
 8193W        W15502   9.421   2.564   6.395
 8194W        W15503  18.920   5.221   6.084
 8195W        W15504  14.108   5.352   7.530
 8196W        W15505   8.631   3.422   0.982
 8197W        W15506  11.844   7.014   8.230
 8198W        W15507  16.419   8.843   7.673
 8199W        W15508   3.061   8.941   7.953
 8200W        W15509   7.131   3.759   6.176
 8201W        W15510  12.539   9.796   6.538
 8202W        W15511  11.435   1.614   0.034
 8203W        W15512   4.241   9.964   6.938
 8204W        W15513  19.922   0.067   8.937
 8205W        W15514  12.309   0.402   0.224
 8206W        W15515  13.329   4.882   7.819
 8207W        W15516  14.809   8.067   6.393
 8208W        W15517  15.267   9.855   9.280
 8209W        W15518  11.473   1.817   9.563
 8210W        W15519  17.698   6.517   9.693
 8211W        W15520   0.736   7.795   8.150
 8212W        W15521  15.045   3.051   0.129
 8213W        W15522  14.054   6.401   8.327
 8214W        W15523  11.016   6.439   6.493
 8215W        W15524  13.182   6.497   7.145
 8216W        W15525   7.191   8.379   8.906
 8217W        W15526  12.955   0.976   6.284
 8218W        W15527  10.907   6.539   7.446
 8219W        W15528   6.635   4.222   9.810
 8220W        W15529   8.331   9.157   7.847
 8221W        W15530  18.666   8.978   8.774
 8222W        W15531   9.163   9.864   6.341
 8223W        W15532   5.277   1.426   9.452
 8224W        W15533  15.895   3.877   9.583
 8225W        W15534  11.834   4.173   7.637
 8226W        W15535   8.212   9.078   0.194
 8227W        W15536   0.889   9.877   6.506
 8228W        W15537   0.248   5.785   0.707
 8229W        W15538   8.021   8.146   8.767
 8230W        W15539  19.854   4.599   9.835
 8231W        W15540  13.619   5.418   9.181
 8232W        W15541  17.333   0.790   8.466
 8233W        W15542  16.614   5.708   8.474
 8234W        W15543  11.237   8.129   6.867
 8235W        W15544  16.825   9.714   7.851
 8236W        W15545   6.014   2.332   0.215
 8237W        W15546  10.290   5.616   9.949
 8238W        W15547  13.971   9.764   7.352
 8239W        W15548  13.459   6.713   7.674
 8240W        W15549   2.351   3.261   6.650
 8241W        W15550   3.747   8.016   6.613
 8242W        W15551  15.500   4.158   0.198
 8243W        W15552   6.965   0.380   9.116
 8244W        W15553  14.611   7.313   9.195
 8245W        W15554   6.824   0.037   0.274
 8246W        W15555  18.256   1.299   0.272
 8247W        W15556  12.387   6.068   6.421
 8248W        W15557  14.872   4.020   8.444
 8249W        W15558   9.641   8.811   0.177
 8250W        W15559  14.256   2.142   7.550
 8251W        W15560  19.960   3.093   7.466
 8252W        W15561   1.557   6.103   6.889
 8253W        W15562  12.124   5.230   9.134
 8254W        W15563  15.591   1.164   0.782
 8255W        W15564  18.409   4.641   0.614
 8256W        W15565  12.053   2.097   9.710
 8257W        W15566   3.817   0.160   7.948
 8258W        W15567   2.627   3.445   0.676
 8259W        W15568  17.618   4.594   8.872
 8260W        W15569   3.847   5.532   8.950
 8261W        W15570  13.288   7.688   9.326
 8262W        W15571   4.206   0.141   8.699
 8263W        W15572  16.415   1.274   8.698
 8264W        W15573   0.910   7.597   8.615
 8265W        W15574   3.943   9.321   8.927
 8266W        W15575  14.028   0.649   7.357
 8267W        W15576  11.925   2.572   9.470
 8268W        W15577   1.317   3.970   6.744
 8269W        W15578  13.727   2.987   9.583
 8270W        W15579  15.827   8.282   0.483
 8271W        W15580   8.288   2.169   7.497
 8272W        W15581   3.617   0.134   0.454
 8273W        W15582  15.826   7.091   9.291
 8274W        W15583   6.225   6.482   8.948
 8275W        W15584   5.832   8.628   8.769
 8276W        W15585   7.094   8.797   7.900
 8277W        W15586  19.962   7.198   7.577
 8278W        W15587  17.184   4.677   9.108
 8279W        W15588   8.452   2.958   6.131
 8280W        W15589  18.376   8.558   8.914
 8281W        W15590  18.333   4.599   9.751
 8282W        W15591  14.143   5.413   9.151
 8283W        W15592  19.866   0.899   6.177
 8284W        W15593  14.874   5.565   5.683
 8285W        W15594  17.476   6.888   8.733
 8286W        W15595   6.464   3.621   7.398
 8287W        W15596  19.321   4.771   9.720
 8288W        W15597  19.156   6.605   6.550
 8289W        W15598  17.475   0.220   0.949
 8290W        W15599   2.309   9.657   0.393
 8291W        W15600   7.508   5.124   7.971
 8292W        W15601  14.097   9.294   0.205
 8293W        W15602   1.937   3.917   8.976
 8294W        W15603  15.211   8.337   7.575
 8295W        W15604  14.867   1.682   8.972
 8296W        W15605   6.729   8.613   7.578
 8297W        W15606  19.381   0.782   6.895
 8298W        W15607   6.941   7.136   0.791
 8299W        W15608  12.411   5.309   0.862
 8300W        W15609   8.364   5.918   9.828
 8301W        W15610  14.762   1.588   7.182
 8302W        W15611  15.097   2.713   8.947
 8303W        W15612   6.013   2.750   7.468
 8304W        W15613   8.664   3.460   6.846
 8305W        W15614  14.341   7.626   9.819
 8306W        W15615   4.651   1.661   0.761
 8307W        W15616  12.298   3.106   8.391
 8308W        W15617   9.756   3.448   0.315
 8309W        W15618  10.690   4.903   9.071
 8310W        W15619   6.056   6.906   9.212
 8311W        W15620   4.073   6.341   0.283
 8312W        W15621   9.489   4.031   7.914
 8313W        W15622  11.772   1.292   0.260
 8314W        W15623  15.070   8.386   6.733
 8315W        W15624   7.833   0.740   7.428
 8316W        W15625  17.143   8.041   8.651
 8317W        W15626   7.116   2.506   9.567
 8318W        W15627  17.882   1.723   9.744
 8319W        W15628   6.228   1.552   9.773
 8320W        W15629  11.385   4.642   9.011
 8321W        W15630   9.636   5.563   6.149
 8322W        W15631  16.822   3.208   6.445
 8323W        W15632   9.358   0.318   1.027
 8324W        W15633  14.816   0.128   8.724
 8325W        W15634   2.266   3.487   8.898
 8326W        W15635  16.922   2.528   0.615
 8327W        W15636  19.083   9.477   7.881
 8328W        W15637  17.409   1.845   6.883
 8329W        W15638  18.410   7.304   0.860
 8330W        W15639   4.745   0.632   7.363
 8331W        W15640   8.362   2.044   8.252
 8332W        W15641  15.036   4.567   5.848
 8333W        W15642  17.216   8.529   8.829
 8334W        W15643   1.317   7.471   7.480
 8335W        W15644   2.843   3.946   9.275
 8336W        W15645  18.180   2.187   0.274
 8337W        W15646  13.069   8.931   7.363
 8338W        W15647  17.479   7.501   7.377
 8339W        W15648  12.007   0.756   8.977
 8340W        W15649  12.720   8.126   0.565
 8341W        W15650  11.195   3.583   7.491
 8342W        W15651  12.000   3.387   6.889
 8343W        W15652   3.111   9.745   6.490
 8344W        W15653   9.491   3.585   8.168
 8345W        W15654   8.031   7.877   7.856
 8346W        W15655  12.006   9.386   7.059
 8347W        W15656  17.633   4.363   9.340
 8348W        W15657   4.428   3.498   7.394
 8349W        W15658  16.420   3.422   5.819
 8350W        W15659  11.456   7.096   7.898
 8351W        W15660   9.325   3.175   6.247
 8352W        W15661  14.922   5.668   7.881
 8353W        W15662   8.465   4.827   6.565
 8354W        W15663   8.305   4.900   8.417
 8355W        W15664  16.518   1.111   7.104
 8356W        W15665   6.109   5.624   6.706
 8357W        W15666   5.581   2.954   0.319
 8358W        W15667   9.892   3.086  -0.001
 8359W        W15668  13.382   5.662   0.004
 8360W        W15669   7.646   4.449   0.655
 8361W        W15670   8.515   3.103   0.137
 8362W        W15671  14.195   3.196   9.693
 8363W        W15672   0.258   6.964   0.677
 8364W        W15673   6.168   7.197   7.525
 8365W        W15674  18.826   3.671   0.485
 8366W        W15675  19.875   9.876   7.035
 8367W        W15676   2.574   0.199   0.911
 8368W        W15677   0.983   8.799   7.007
 8369W        W15678  11.274   6.220   0.637
 8370W        W15679   7.175   4.239   0.663
 8371W        W15680   1.292   8.030   6.352
 8372W        W15681  14.831   5.452   7.044
 8373W        W15682   5.505   0.218   8.479
 8374W        W15683  18.472   9.874   6.769
 8375W        W15684   1.385   6.241   8.948
 8376W        W15685  12.303   1.531   8.313
 8377W        W15686  18.725   4.211   0.607
 8378W        W15687  18.640   1.256   8.421
 8379W        W15688  10.171   9.172   8.909
 8380W        W15689   6.102   4.346   6.756
 8381W        W15690  14.510   2.105   9.501
 8382W        W15691  12.954   5.384   0.142
 8383W        W15692  10.310   2.332   8.895
 8384W        W15693   7.333   1.376   7.872
 8385W        W15694  15.306   0.487   0.525
 8386W        W15695  18.832   8.501   7.977
 8387W        W15696   5.866   8.401   7.015
 8388W        W15697  16.372   0.626   7.007
 8389W        W15698   6.907   6.156   0.960
 8390W        W15699  11.396   2.214   6.984
 8391W        W15700   3.273   7.796   7.455
 8392W        W15701  12.628   9.262   9.814
 8393W        W15702   5.701   3.243   0.704
 8394W        W15703   9.411   3.777   0.474
 8395W        W15704   9.102   3.449   0.712
 8396W        W15705   7.466   7.321   6.835
 8397W        W15706   3.478   0.640   8.806
 8398W        W15707   9.476   3.668   7.265
 8399W        W15708  11.800   3.999   0.432
 8400W        W15709   4.583   2.240   9.949
 8401W        W15710  17.821   2.688   8.709
 8402W        W15711  18.856   1.767   0.214
 8403W        W15712   8.755   4.709   8.060
 8404W        W15713   4.534   7.183   7.727
 8405W        W15714   0.812   0.339   0.166
 8406W        W15715   6.660   8.176   6.822
 8407W        W15716   5.685   4.347   9.888
 8408W        W15717  13.476   9.857   6.548
 8409W        W15718   5.778   8.301   6.468
 8410W        W15719  18.462   1.239   7.205
 8411W        W15720  16.993   7.454   7.492
 8412W        W15721  18.417   9.733   6.265
 8413W        W15722  13.609   9.191   0.454
 8414W        W15723  16.455   9.061   8.593
 8415W        W15724   9.823   1.159   0.195
 8416W        W15725   7.226   3.257   6.097
 8417W        W15726   7.594   7.614   9.559
 8418W        W15727  15.998   4.133   0.987
 8419W        W15728  16.310   8.051   8.273
 8420W        W15729  13.403   7.315   7.409
 8421W        W15730   5.074   1.882   7.323
 8422W        W15731  14.083   3.442   6.885
 8423W        W15732  19.613   1.787   9.711
 8424W        W15733   1.319   2.137   6.294
 8425W        W15734  17.837   5.079   0.893
 8426W        W15735   6.940   4.324   0.230
 8427W        W15736   6.534   2.766   7.499
 8428W        W15737   7.717   9.427   9.563
 8429W        W15738  10.002   7.489   0.220
 8430W        W15739   9.292   4.298   0.631
 8431W        W15740  18.976   6.338   7.489
 8432W        W15741  15.854   4.042   7.424
 8433W        W15742   8.831   8.248   7.762
 8434W        W15743   9.592   4.529   8.307
 8435W        W15744   7.781   3.056   8.371
 8436W        W15745  13.961   1.650   9.496
 8437W        W15746   1.030   2.340   8.118
 8438W        W15747  19.253   7.494   6.141
 8439W        W15748  16.009   0.289   1.115
 8440W        W15749  13.012   4.509   0.353
 8441W        W15750  13.577   6.995   8.883
 8442W        W15751  11.012   0.955   9.627
 8443W        W15752   9.101   8.688   7.958
 8444W        W15753   2.793   8.871   6.943
 8445W        W15754   2.801   6.724   6.658
 8446W        W15755  16.009   1.006   6.921
 8447W        W15756   6.972   1.691   7.708
 8448W        W15757  19.538   8.890   6.630
 8449W        W15758  13.954   1.585   8.973
 8450W        W15759   8.240   0.875   6.465
 8451W        W15760  10.133   8.195   0.587
 8452W        W15761   6.320   4.089   8.092
 8453W        W15762   2.043   3.146   0.366
 8454W        W15763  19.990   1.563   8.632
 8455W        W15764  19.774   3.161   0.465
 8456W        W15765   5.752   6.598   8.199
 8457W        W15766   1.681   0.013   7.503
 8458W        W15767  17.269   8.789   7.978
 8459W        W15768   5.156   5.766   8.371
 8460W        W15769   2.529   7.167   0.640
 8461W        W15770  19.673   3.192   8.928
 8462W        W15771  17.258   7.004   7.514
 8463W        W15772   9.627   0.641   6.934
 8464W        W15773  11.245   3.849   9.980
 8465W        W15774   3.023   7.632   6.967
 8466W        W15775  16.485   4.437   7.459
 8467W        W15776  12.189   9.075   9.998
 8468W        W15777  14.602   4.197   9.665
 8469W        W15778   2.880   5.933   0.619
 8470W        W15779  16.894   6.433   9.002
 8471W        W15780   0.343   8.986   0.575
 8472W        W15781  16.422   5.734   7.204
 8473W        W15782   9.073   7.791   7.795
 8474W        W15783  11.829   3.377   8.678
 8475W        W15784  14.809   0.529   0.726
 8476W        W15785   5.787   4.130   8.134
 8477W        W15786  17.025   7.755   9.324
 8478W        W15787  13.015   5.199   8.729
 8479W        W15788   9.261   5.005   9.341
 8480W        W15789  16.347   0.209   6.714
 8481W        W15790   1.421   8.853   0.112
 8482W        W15791  14.878   6.875   6.008
 8483W        W15792   9.426   6.376   8.295
 8484W        W15793   4.126   7.222   6.522
 8485W        W15794   9.051   2.017   7.046
 8486W        W15795   4.570   5.926   0.886
 8487W        W15796   4.794   5.832   8.028
 8488W        W15797   8.211   0.307   9.192
 8489W        W15798  10.020   5.532   9.487
 8490W        W15799  10.149   1.949   6.418
 8491W        W15800   9.995   4.569   0.309
 8492W        W15801   5.771   0.339   0.354
 8493W        W15802  11.010   5.424   0.570
 8494W        W15803  17.777   9.239   0.731
 8495W        W15804  17.084   8.460   8.329
 8496W        W15805   9.520   6.113   7.839
 8497W        W15806  14.356   1.257   0.681
 8498W        W15807   6.295   3.088   9.560
 8499W        W15808  12.686   0.215   8.930
 8500W        W15809   1.375   7.112   7.821
 8501W        W15810  13.199   7.686   7.101
 8502W        W15811   8.645   1.545   9.093
 8503W        W15812  13.191   6.636   6.207
 8504W        W15813  19.279   0.560   8.595
 8505W        W15814   7.689   1.800   0.093
 8506W        W15815   1.992   5.700   8.757
 8507W        W15816   0.603   1.153   8.707
 8508W        W15817   2.811   9.180   9.839
 8509W        W15818   3.508   7.042   8.954
 8510W        W15819   4.670   1.081   9.218
 8511W        W15820   5.365   1.725   8.776
 8512W        W15821  13.922   7.146   7.080
 8513W        W15822   0.823   5.473   9.364
 8514W        W15823  12.268   6.555   7.932
 8515W        W15824   8.182   2.264   8.702
 8516W        W15825   1.081   7.183   9.023
 8517W        W15826  12.585   4.491   0.621
 8518W        W15827  18.316   8.596   0.722
 8519W        W15828   2.015   6.922   7.038
 8520W        W15829   2.146   3.652   0.865
 8521W        W15830  11.140   8.511   6.062
 8522W        W15831   0.415   5.284   5.997
 8523W        W15832  10.673   4.827   6.057
 8524W        W15833  10.510   7.046   7.623
 8525W        W15834  15.469   9.335   0.995
 8526W        W15835  11.341   0.189   7.531
 8527W        W15836   7.167   5.020   6.709
 8528W        W15837  14.319   7.527   8.834
 8529W        W15838   5.628   6.884   8.967
 8530W        W15839   8.249   8.740   7.063
 8531W        W15840   5.077   2.407   9.175
 8532W        W15841   0.027   6.047   6.226
 8533W        W15842  12.428   4.969   9.477
 8534W        W15843   0.685   0.466   0.638
 8535W        W15844  11.624   2.633   8.194
 8536W        W15845   3.807   3.970   8.940
 8537W        W15846  19.055   4.322   8.155
 8538W        W15847  16.695   8.686   9.720
 8539W        W15848   9.021   6.642   6.221
 8540W        W15849  10.689   4.147   9.711
 8541W        W15850   9.717   8.257   7.747
 8542W        W15851  11.948   8.488   6.639
 8543W        W15852   6.175   6.105   9.784
 8544W        W15853  16.504   5.388   6.454
 8545W        W15854  12.140   6.131   0.266
 8546W        W15855  13.110   9.281   0.966
 8547W        W15856   0.087   3.425   6.505
 8548W        W15857  11.771   7.331   7.521
 8549W        W15858  10.842   4.681   0.854
 8550W        W15859  19.360   8.276   8.821
 8551W        W15860  14.538   8.096   8.052
 8552W        W15861   0.378   8.976   9.170
 8553W        W15862   5.694   7.927   7.148
 8554W        W15863   7.833   8.582   9.721
 8555W        W15864  16.487   2.212   8.626
 8556W        W15865   9.747   9.775   6.653
 8557W        W15866  11.489   8.364   6.459
 8558W        W15867  19.573   2.789   7.632
 8559W        W15868   2.164   0.121   0.531
 8560W        W15869  17.049   3.612   8.148
 8561W        W15870   1.577   7.132   9.784
 8562W        W15871   5.121   2.141   5.937
 8563W        W15872  15.658   7.117   6.322
 8564W        W15873   7.172   3.559   8.797
 8565W        W15874   5.082   9.493   8.075
 8566W        W15875   5.590   2.686   8.862
 8567W        W15876  12.138   8.943   6.789
 8568W        W15877  18.572   0.893   0.365
 8569W        W15878   4.420   9.542   0.240
 8570W        W15879  15.679   8.509   6.962
 8571W        W15880   6.234   4.007   7.154
 8572W        W15881  18.742   7.924   0.769
 8573W        W15882   8.438   6.121   6.233
 8574W        W15883  16.817   7.687   8.856
 8575W        W15884   0.062   5.029   6.263
 8576W        W15885   1.599   1.712   6.308
 8577W        W15886   8.729   5.652   8.013
 8578W        W15887  18.698   7.563   7.725
 8579W        W15888   0.567   8.049   9.814
 8580W        W15889   9.355   7.575   7.067
 8581W        W15890  19.953   3.524   0.773
 8582W        W15891  19.153   8.248   9.310
 8583W        W15892  10.934   2.300   0.761
 8584W        W15893  14.079   6.031   7.022
 8585W        W15894  17.087   7.210   8.763
 8586W        W15895  19.258   7.282   0.831
 8587W        W15896  17.484   8.759   0.747
 8588W        W15897   7.719   3.905   9.278
 8589W        W15898  14.442   8.021   7.064
 8590W        W15899   4.978   0.169   7.434
 8591W        W15900   5.517   6.465   6.738
 8592W        W15901  10.861   7.526   9.057
 8593W        W15902  12.362   8.412   7.408
 8594W        W15903   8.832   5.293   7.633
 8595W        W15904  15.503   8.824   6.156
 8596W        W15905  19.384   4.942   0.219
 8597W        W15906   3.937   7.518   9.770
 8598W        W15907   7.173   1.988   8.077
 8599W        W15908  16.159   7.451   0.158
 8600W        W15909   9.248   2.670   8.344
 8601W        W15910  16.755   8.265   0.053
 8602W        W15911   3.160   3.722   6.953
 8603W        W15912  13.083   8.011   0.920
 8604W        W15913   8.149   6.432   8.510
 8605W        W15914  13.171   5.490   7.894
 8606W        W15915  18.053   0.418   8.858
 8607W        W15916   4.645   2.120   7.080
 8608W        W15917  12.022   7.024   7.171
 8609W        W15918  15.985   6.486   8.555
 8610W        W15919   2.289   2.719   6.961
 8611W        W15920  16.398   9.282   9.875
 8612W        W15921   2.504   8.960   7.917
 8613W        W15922   9.304   4.092   8.395
 8614W        W15923  19.449   4.532   7.413
 8615W        W15924   3.063   4.835   6.082
 8616W        W15925  19.031   5.671   7.022
 8617W        W15926   9.886   8.732   7.678
 8618W        W15927   9.467   3.573   9.261
 8619W        W15928   7.254   7.383   9.856
 8620W        W15929   7.762   9.074   8.718
 8621W        W15930   3.300   6.557   9.833
 8622W        W15931   3.711   0.761   8.310
 8623W        W15932  15.390   8.869   8.647
 8624W        W15933   4.721   4.095   0.033
 8625W        W15934  13.207   5.881   6.634
 8626W        W15935   8.889   0.253   9.771
 8627W        W15936  14.157   0.259   6.583
 8628W        W15937  19.155   1.536   9.449
 8629W        W15938   1.289   9.687   7.786
 8630W        W15939  17.685   0.970   0.931
 8631W        W15940   5.097   6.345   6.428
 8632W        W15941  12.886   4.701   6.339
 8633W        W15942  11.106   9.546   6.199
 8634W        W15943   4.107   5.459   7.999
 8635W        W15944  13.399   8.557   7.694
 8636W        W15945  11.613   0.383   9.044
 8637W        W15946  19.270   3.052   9.219
 8638W        W15947  15.404   0.542   6.808
 8639W        W15948   0.360   3.610   6.895
 8640W        W15949  16.834   4.182   6.292
 8641W        W15950   1.893   0.836   0.653
 8642W        W15951  10.558   5.764   5.992
 8643W        W15952   3.231   1.638   7.458
 8644W        W15953   9.071   8.192   0.733
 8645W        W15954   1.085   4.014   7.216
 8646W        W15955  13.896   5.611   7.964
 8647W        W15956  12.939   9.379   7.591
 8648W        W15957  14.741   6.003   6.493
 8649W        W15958   6.770   9.712   6.427
 8650W        W15959   7.005   7.857   9.813
 8651W        W15960   6.939   6.818   8.150
 8652W        W15961   7.941   8.632   0.243
 8653W        W15962   2.302   0.210   0.050
 8654W        W15963  16.421   1.104   0.270
 8655W        W15964  19.902   9.962   0.927
 8656W        W15965  11.509   7.323   6.339
 8657W        W15966   1.786   0.517   7.305
 8658W        W15967   1.757   1.267   0.909
 8659W        W15968   3.540   2.712   8.749
 8660W        W15969   7.902   8.175   0.041
 8661W        W15970   0.373   6.737   8.672
 8662W        W15971  18.411   5.576   6.999
 8663W        W15972   9.580   1.909   7.877
 8664W        W15973  10.857   4.005   6.090
 8665W        W15974   8.333   5.305   7.461
 8666W        W15975  18.003   2.649   1.224
 8667W        W15976   4.422   0.734   6.985
 8668W        W15977   6.673   0.733   0.623
 8669W        W15978   8.660   1.715   0.147
 8670W        W15979   5.052   1.359   8.511
 8671W        W15980   0.005   8.977   6.804
 8672W        W15981  19.761   9.439   6.729
 8673W        W15982   4.617   6.474   7.216
 8674W        W15983   5.492   0.205   0.780
 8675W        W15984  16.297   3.997   7.665
 8676W        W15985  18.863   3.947   9.231
 8677W        W15986  14.490   4.943   9.222
 8678W        W15987   6.568   4.643   6.066
 8679W        W15988  15.477   4.079   6.609
 8680W        W15989   8.597   4.366   6.770
 8681W        W15990  10.110   7.656   6.495
 8682W        W15991  17.270   8.192   0.113
 8683W        W15992  16.058   2.260   7.379
 8684W        W15993  11.327   1.322   9.444
 8685W        W15994   2.707   2.145   6.160
 8686W        W15995   0.955   5.828   8.892
 8687W        W15996   9.902   6.466   0.267
 8688W        W15997  18.436   7.078   8.678
 8689W        W15998  15.739   9.659   8.805
 8690W        W15999  15.386   3.766   9.907
 8691W        W16000   1.706   0.347   0.638
 8692W        W16001   4.173   5.494   6.525
 8693W        W16002  17.781   4.688   7.503
 8694W        W16003  13.881   5.879   9.191
 8695W        W16004   8.405   8.730   0.545
 8696W        W16005   2.284   9.643   7.118
 8697W        W16006   4.743   9.769   7.133
 8698W        W16007  19.905   3.843   6.755
 8699W        W16008  14.484   7.577   0.314
 8700W        W16009   5.037   8.135   9.224
 8701W        W16010  15.490   6.750   0.168
 8702W        W16011   6.997   9.272   6.662
 8703W        W16012   8.352   0.122   9.642
 8704W        W16013  19.995   8.292   1.001
 8705W        W16014  17.946   4.884   9.904
 8706W        W16015  14.621   3.038   8.359
 8707W        W16016   6.470   9.241   8.285
 8708W        W16017  17.595   9.503   9.241
 8709W        W16018   4.318   2.791   8.592
 8710W        W16019  12.735   4.267   8.280
 8711W        W16020  13.361   4.590   7.082
 8712W        W16021  10.529   5.210   7.099
 8713W        W16022  15.691   9.930   9.728
 8714W        W16023  18.308   1.706   7.367
 8715W        W16024   1.673   4.580   6.087
 8716W        W16025  12.934   3.804   8.371
 8717W        W16026   8.896   7.404   6.872
 8718W        W16027  13.568   4.100   7.240
 8719W        W16028  12.034   8.946   6.272
 8720W        W16029  18.228   2.350   6.086
 8721W        W16030   4.309   5.386   9.874
 8722W        W16031   8.536   9.258   0.537
 8723W        W16032   1.305   2.705   8.433
 8724W        W16033   9.646   6.371   0.688
 8725W        W16034  13.258   8.095   7.880
 8726W        W16035   8.646   4.960   0.154
 8727W        W16036   0.085   9.337   0.316
 8728W        W16037  13.973   5.599   0.720
 8729W        W16038   2.277   0.632   7.257
 8730W        W16039  16.207   5.927   0.990
 8731W        W16040  12.838   0.508   9.548
 8732W        W16041   9.501   2.343   9.947
 8733W        W16042   0.234   3.230   0.186
 8734W        W16043   5.286   8.033   7.453
 8735W        W16044   6.536   2.539   0.301
 8736W        W16045  14.146   2.303   0.749
 8737W        W16046   3.490   4.095   8.044
 8738W        W16047   8.638   6.603   7.923
 8739W        W16048  14.768   2.522   0.177
 8740W        W16049   4.719   2.574   8.828
 8741W        W16050   5.546   7.801   0.164
 8742W        W16051  16.237   6.946   0.711
 8743W        W16052  13.150   0.304   7.592
 8744W        W16053  13.008   6.099   0.806
 8745W        W16054  16.208   0.648   6.485
 8746W        W16055   3.995   8.393   0.763
 8747W        W16056   6.964   5.582   9.379
 8748W        W16057  12.733   4.034   0.364
 8749W        W16058  10.586   8.467   7.310
 8750W        W16059  17.638   5.086   7.177
 8751W        W16060  17.235   2.147   0.751
 8752W        W16061  16.168   6.207   9.131
 8753W        W16062  10.628   0.734   6.207
 8754W        W16063  12.092   6.066   7.332
 8755W        W16064  16.897   1.951   6.848
 8756W        W16065   1.761   0.639   9.632
 8757W        W16066   5.070   4.414   7.665
 8758W        W16067  16.251   0.464   0.706
 8759W        W16068   6.880   8.021   6.352
 8760W        W16069  16.100   2.753   8.099
 8761W        W16070   2.141   5.476   6.825
 8762W        W16071  11.549   7.601   7.883
 8763W        W16072   9.831   1.731   9.245
 8764W        W16073  11.210   8.817   7.833
 8765W        W16074   3.813   5.508   9.816
 8766W        W16075   8.368   5.502   0.213
 8767W        W16076   2.892   5.450   6.096
 8768W        W16077  19.374   5.538   7.805
 8769W        W16078   5.361   8.324   7.001
 8770W        W16079  17.270   9.465   0.686
 8771W        W16080   0.289   8.395   7.113
 8772W        W16081   8.778   1.559   6.996
 8773W        W16082   0.664   6.700   0.443
 8774W        W16083  11.624   9.322   6.164
 8775W        W16084  13.956   1.714   1.054
 8776W        W16085  16.317   8.390   0.306
 8777W        W16086  14.537   0.841   0.421
 8778W        W16087  13.930   1.517   0.543
 8779W        W16088   3.584   2.486   0.834
 8780W        W16089  12.140   8.916   7.308
 8781W        W16090   0.494   8.854   6.886
 8782W        W16091  19.520   1.753   8.709
 8783W        W16092  19.500   0.154   0.640
 8784W        W16093   2.352   9.747   0.883
 8785W        W16094  16.365   6.142   7.481
 8786W        W16095  11.366   9.448   9.996
 8787W        W16096  10.602   4.560   8.004
 8788W        W16097   3.717   6.556   7.714
 8789W        W16098  16.147   7.889   9.578
 8790W        W16099   0.570   2.157   8.322
 8791W        W16100  11.610   6.027   0.017
 8792W        W16101   0.591   7.942   7.120
 8793W        W16102  19.531   3.686   7.718
 8794W        W16103  10.831   1.087   7.471
 8795W        W16104  14.394   1.716   9.210
 8796W        W16105  16.888   3.898   9.390
 8797W        W16106  18.746   2.744   0.785
 8798W        W16107  17.720   7.940   0.900
 8799W        W16108  10.431   2.413   0.164
 8800W        W16109  16.422   7.358   8.839
 8801W        W16110   7.010   2.548   7.658
 8802W        W16111   6.267   5.423   7.526
 8803W        W16112  19.000   8.781   9.140
 8804W        W16113   7.959   4.431   9.286
 8805W        W16114  15.578   4.478   7.493
 8806W        W16115  13.578   1.027   9.597
 8807W        W16116  12.524   4.435   0.117
 8808W        W16117   3.787   1.654   0.243
 8809W        W16118  18.430   9.433   7.648
 8810W        W16119  13.518   8.275   8.271
 8811W        W16120   9.794   1.724   8.351
 8812W        W16121  15.489   8.136   0.099
 8813W        W16122  17.458   0.806   9.477
 8814W        W16123   7.209   3.867   9.220
 8815W        W16124  14.367   4.639   6.450
 8816W        W16125  14.914   3.742   9.710
 8817W        W16126   1.799   2.972   9.944
 8818W        W16127   5.878   1.541   7.521
 8819W        W16128  16.931   8.363   7.806
 8820W        W16129   7.168   8.846   7.406
 8821W        W16130   2.016   3.358   7.652
 8822W        W16131  19.272   5.990   9.345
 8823W        W16132  15.707   1.104   7.993
 8824W        W16133   6.563   4.062   7.635
 8825W        W16134   6.374   3.647   0.448
 8826W        W16135   5.414   3.291   6.334
 8827W        W16136   3.205   9.742   8.449
 8828W        W16137  15.080   2.219   8.792
 8829W        W16138   8.895   9.048   6.554
 8830W        W16139   1.582   2.615   0.260
 8831W        W16140   7.870   7.446   7.638
 8832W        W16141  19.849   8.491   6.761
 8833W        W16142  14.891   3.241   7.354
 8834W        W16143   2.479   2.972   9.163
 8835W        W16144  16.850   1.200   8.975
 8836W        W16145  12.528   1.013   6.760
 8837W        W16146   8.069   1.392   6.410
 8838W        W16147   4.443   3.712   8.212
 8839W        W16148   6.479   4.473   9.408
 8840W        W16149   2.531   8.428   0.775
 8841W        W16150  10.680   6.896   8.367
 8842W        W16151  16.083   7.402   8.382
 8843W        W16152   9.675   1.399   7.953
 8844W        W16153  18.354   1.642   6.853
 8845W        W16154   1.130   3.146   7.196
 8846W        W16155   8.358   6.595   7.490
 8847W        W16156   5.465   1.702   7.778
 8848W        W16157  19.389   0.552   7.375
 8849W        W16158  16.446   2.694   6.888
 8850W        W16159   3.711   6.404   7.229
 8851W        W16160  15.025   8.328   8.624
 8852W        W16161  15.683   6.243   6.121
 8853W        W16162   4.083   3.587   9.576
 8854W        W16163   4.179   1.020   8.473
 8855W        W16164   7.760   0.230   6.070
 8856W        W16165  11.248   6.618   8.784
 8857W        W16166  17.981   0.368   5.949
 8858W        W16167   1.822   3.222   9.012
 8859W        W16168   2.871   5.889   8.680
 8860W        W16169   9.948   2.588   9.907
 8861W        W16170   2.505   3.512   6.208
 8862W        W16171   7.101   1.411   7.002
 8863W        W16172  18.339   0.688   9.964
 8864W        W16173  17.204   1.705   9.479
 8865W        W16174   1.268   5.056   0.126
 8866W        W16175  11.411   1.126   0.577
 8867W        W16176  10.747   6.210   6.122
 8868W        W16177   4.278   6.347   0.763
 8869W        W16178   9.376   3.166   8.470
 8870W        W16179   7.051   8.437   0.645
 8871W        W16180   6.652   3.023   6.917
 8872W        W16181  10.733   7.309   0.718
 8873W        W16182   9.464   7.623   9.494
 8874W        W16183   7.189   9.932   0.638
 8875W        W16184   3.520   8.452   0.581
 8876W        W16185  17.954   7.131   0.684
 8877W        W16186   5.082   9.942   8.346
 8878W        W16187  17.742   8.804   7.191
 8879W        W16188  12.655   7.547   8.376
 8880W        W16189   4.456   0.321   0.062
 8881W        W16190   5.091   8.519   7.418
 8882W        W16191   6.004   3.202   7.724
 8883W        W16192   5.129   2.356   7.156
 8884W        W16193  18.397   1.770   0.481
 8885W        W16194   2.996   6.374   0.233
 8886W        W16195   3.266   8.895   9.895
 8887W        W16196  17.789   7.566   8.121
 8888W        W16197  14.086   0.615   0.373
 8889W        W16198  13.576   7.693   7.988
 8890W        W16199  13.727   4.946   0.314
 8891W        W16200   9.909   7.537   6.971
 8892W        W16201  14.760   5.518   0.046
 8893W        W16202   0.412   3.219   0.693
 8894W        W16203   6.990   4.857   0.188
 8895W        W16204  11.173   3.432   9.438
 8896W        W16205   9.359   4.367   1.129
 8897W        W16206  18.707   5.165   7.869
 8898W        W16207  12.750   3.010   7.012
 8899W        W16208   7.127   3.289   7.027
 8900W        W16209   8.968   3.513   9.318
 8901W        W16210  12.617   4.847   1.026
 8902W        W16211  19.689   7.370   9.079
 8903W        W16212  11.548   5.534   0.719
 8904W        W16213   1.372   3.623   8.430
 8905W        W16214  11.607   0.619   7.663
 8906W        W16215   1.742   2.493   8.249
 8907W        W16216  14.719   3.251   9.751
 8908W        W16217  16.182   7.056   6.224
 8909W        W16218   0.029   8.087   9.728
 8910W        W16219   5.526   9.646   6.279
 8911W        W16220  15.875   7.195   7.950
 8912W        W16221  18.738   9.846   8.158
 8913W        W16222   4.523   6.758   0.599
 8914W        W16223  10.391   8.912   8.430
 8915W        W16224   0.368   6.603   6.281
 8916W        W16225   0.824   2.266   6.418
 8917W        W16226  18.263   2.536   8.439
 8918W        W16227  17.047   8.657   9.333
 8919W        W16228   0.637   2.272   6.926
 8920W        W16229   9.210   4.453   7.983
 8921W        W16230  11.775   9.698   9.772
 8922W        W16231  12.867   0.124   5.947
 8923W        W16232  15.469   8.384   8.882
 8924W        W16233  16.823   8.880   6.229
 8925W        W16234  15.348   9.111   9.965
 8926W        W16235  17.861   6.367   8.483
 8927W        W16236  17.476   4.699   7.967
 8928W        W16237   2.033   4.478   0.237
 8929W        W16238  17.199   4.258   7.285
 8930W        W16239   0.662   7.291   8.283
 8931W        W16240   7.645   6.948   7.149
 8932W        W16241  18.392   3.498   8.217
 8933W        W16242  12.416   8.512   6.887
 8934W        W16243   5.799   6.452   9.241
 8935W        W16244  11.762   6.627   7.908
 8936W        W16245  13.978   2.058   9.170
 8937W        W16246  19.344   2.996   5.475
 8938W        W16247   5.830   3.548   8.836
 8939W        W16248   4.112   5.532   8.502
 8940W        W16249   3.194   5.516   7.094
 8941W        W16250   9.315   1.274   9.536
 8942W        W16251   0.994   8.807   7.512
 8943W        W16252   2.350   4.631   7.594
 8944W        W16253  17.970   5.472   7.480
 8945W        W16254   7.942   0.422   0.682
 8946W        W16255  15.497   3.998   6.081
 8947W        W16256  16.386   2.603   9.376
 8948W        W16257  11.375   1.425   8.091
 8949W        W16258   5.046   2.136   0.653
 8950W        W16259   9.224   2.346   8.764
 8951W        W16260   7.066   4.506   6.911
 8952W        W16261  11.266   0.605   8.417
 8953W        W16262  14.678   0.735   6.587
 8954W        W16263   6.699   1.676   9.930
 8955W        W16264   0.641   0.351   9.218
 8956W        W16265   7.471   5.769   9.398
 8957W        W16266   5.100   7.817   9.855
 8958W        W16267   9.784   3.149   8.117
 8959W        W16268   3.060   0.660   6.658
 8960W        W16269   4.733   4.115   0.532
 8961W        W16270  15.528   5.938   0.207
 8962W        W16271  14.339   8.998   6.944
 8963W        W16272   5.222   6.093   7.309
 8964W        W16273   4.696   1.737   8.279
 8965W        W16274   5.715   8.905   0.684
 8966W        W16275  19.731   1.774   7.754
 8967W        W16276   1.435   8.856   6.794
 8968W        W16277  11.903   8.303   7.611
 8969W        W16278  19.724   5.140   5.917
 8970W        W16279   9.210   3.104   7.993
 8971W        W16280  16.488   1.744   7.916
 8972W        W16281   2.572   2.246   0.141
 8973W        W16282   1.432   3.497   6.942
 8974W        W16283   9.318   3.061   9.335
 8975W        W16284   7.503   6.809   9.570
 8976W        W16285  12.800   7.389   8.842
 8977W        W16286  18.965   5.470   6.550
 8978W        W16287   7.827   6.819   8.331
 8979W        W16288  18.237   2.248   6.600
 8980W        W16289  16.376   9.679   0.224
 8981W        W16290   7.146   5.027   8.527
 8982W        W16291  13.406   9.177   9.472
 8983W        W16292   8.038   3.211   8.812
 8984W        W16293   7.456   1.817   8.785
 8985W        W16294  16.559   4.874   0.556
 8986W        W16295   7.724   3.974   8.410
 8987W        W16296  14.932   5.895   7.406
 8988W        W16297   2.596   7.045   9.750
 8989W        W16298   2.872   1.296   8.798
 8990W        W16299  10.502   9.288   7.424
 8991W        W16300   6.226   8.879   6.457
 8992W        W16301   3.753   4.492   7.247
 8993W        W16302  14.490   5.106   7.794
 8994W        W16303   7.955   8.948   0.626
 8995W        W16304  15.980   0.738   8.242
 8996W        W16305  12.580   4.467   9.071
 8997W        W16306   6.565   7.647   6.173
 8998W        W16307   7.623   4.556   9.716
 8999W        W16308   1.085   6.117   0.610
 9000W        W16309  19.673   9.257   8.648
 9001W        W16310   3.908   1.896   5.897
 9002W        W16311  11.230   6.776   0.100
 9003W        W16312   8.589   2.555   9.285
 9004W        W16313  19.485   3.272   7.427
 9005W        W16314   4.597   6.319   0.327
 9006W        W16315   8.997   4.503   9.298
 9007W        W16316   5.154   6.120   8.807
 9008W        W16317   0.891   8.946   9.191
 9009W        W16318   5.681   9.722   0.676
 9010W        W16319  15.521   2.063   9.453
 9011W        W16320  16.504   9.742   6.901
 9012W        W16321   1.577   3.836   9.768
 9013W        W16322  12.458   5.654   8.456
 9014W        W16323  16.270   0.522   7.507
 9015W        W16324  15.988   8.771   0.430
 9016W        W16325  10.532   1.865   6.755
 9017W        W16326   8.253   6.919   5.823
 9018W        W16327   9.995   5.824   7.834
 9019W        W16328  19.963   1.455   9.166
 9020W        W16329   0.708   6.490   7.874
 9021W        W16330  13.611   8.656   0.358
 9022W        W16331   8.370   7.442   6.887
 9023W        W16332   2.268   4.590   0.712
 9024W        W16333  17.858   5.519   8.831
 9025W        W16334  16.685   0.843   7.525
 9026W        W16335  18.273   9.152   9.716
 9027W        W16336   5.495   6.546   7.250
 9028W        W16337   2.762   1.354   7.385
 9029W        W16338  15.756   7.784   7.283
 9030W        W16339  12.935   9.785   0.783
 9031W        W16340   3.222   1.541   8.333
 9032W        W16341  15.812   5.496   0.282
 9033W        W16342  19.358   8.752   8.244
 9034W        W16343  10.052   1.961   6.924
 9035W        W16344  16.936   1.567   7.652
 9036W        W16345  17.710   5.077   9.109
 9037W        W16346   9.666   5.903   0.397
 9038W        W16347   2.846   1.034   8.356
 9039W        W16348  12.564   5.770   0.154
 9040W        W16349  10.150   8.110   6.190
 9041W        W16350   9.998   2.465   0.471
 9042W        W16351  19.514   1.266   6.143
 9043W        W16352   5.060   7.624   7.698
 9044W        W16353   9.212   0.738   7.288
 9045W        W16354   0.814   7.411   7.792
 9046W        W16355  10.974   6.874   9.652
 9047W        W16356   7.489   2.656   7.520
 9048W        W16357   2.471   6.359   0.176
 9049W        W16358   7.707   6.890   0.549
 9050W        W16359  19.377   1.220   7.249
 9051W        W16360   7.867   0.296   9.608
 9052W        W16361  11.841   9.635   0.668
 9053W        W16362   5.240   4.052   8.319
 9054W        W16363   6.507   5.848   6.365
 9055W        W16364   1.283   9.786   7.261
 9056W        W16365   1.211   3.911   6.157
 9057W        W16366  14.174   8.542   9.586
 9058W        W16367  11.888   8.459   6.143
 9059W        W16368   4.228   5.052   8.295
 9060W        W16369  12.207   4.800   9.907
 9061W        W16370   3.630   8.913   8.652
 9062W        W16371   3.822   8.829   8.197
 9063W        W16372  10.395   5.169   9.423
 9064W        W16373   9.808   1.944   0.569
 9065W        W16374   1.045   2.041   8.516
 9066W        W16375  12.817   8.590   8.671
 9067W        W16376  16.489   8.482   9.295
 9068W        W16377   8.115   6.959   6.874
 9069W        W16378  15.309   7.088   9.340
 9070W        W16379  17.810   1.745   9.234
 9071W        W16380  11.133   9.917   6.550
 9072W        W16381  13.187   7.973   0.401
 9073W        W16382  12.430   5.532   7.050
 9074W        W16383   3.724   5.869   8.564
 9075W        W16384   8.619   0.718   9.367
 9076W        W16385  16.387   9.536   0.728
 9077W        W16386  13.391   8.182   9.271
 9078W        W16387  19.151   2.108   9.806
 9079W        W16388   2.308   2.370   9.707
 9080W        W16389  15.791   7.960   6.333
 9081W        W16390  11.734   1.283   7.363
 9082W        W16391  19.288   0.576   9.651
 9083W        W16392  13.947   4.464   0.371
 9084W        W16393   2.206   5.257   8.657
 9085W        W16394   3.957   8.518   8.737
 9086W        W16395  16.442   8.510   5.931
 9087W        W16396  16.778   0.177   6.993
 9088W        W16397   4.749   8.899   7.545
 9089W        W16398  15.956   1.275   9.489
 9090W        W16399   0.181   3.768   7.639
 9091W        W16400   4.579   8.428   7.454
 9092W        W16401   6.404   2.038   9.665
 9093W        W16402  15.454   6.511   8.564
 9094W        W16403  11.007   1.797   0.773
 9095W        W16404   2.005   5.046   7.146
 9096W        W16405  11.099   0.984   8.106
 9097W        W16406   1.666   4.316   7.842
 9098W        W16407  10.291   9.705   8.804
 9099W        W16408   5.153   9.058   7.824
 9100W        W16409  10.670   3.367   8.640
 9101W        W16410   1.480   2.057   8.183
 9102W        W16411   1.624   3.185   7.377
 9103W        W16412   7.233   5.593   8.938
 9104W        W16413   4.813   4.074   6.433
 9105W        W16414   4.435   9.501   6.803
 9106W        W16415  15.684   5.924   1.104
 9107W        W16416   8.400   0.200   0.681
 9108W        W16417   5.449   8.242   1.051
 9109W        W16418   6.222   3.509   5.997
 9110W        W16419   7.595   8.070   9.054
 9111W        W16420   7.965   5.207   8.198
 9112W        W16421  18.644   9.356   8.109
 9113W        W16422   0.281   0.625   6.032
 9114W        W16423   0.283   3.693   9.440
 9115W        W16424  10.848   4.148   0.198
 9116W        W16425   6.001   1.606   8.021
 9117W        W16426  18.560   7.429   8.215
 9118W        W16427   6.529   8.209   9.204
 9119W        W16428  10.062   9.782   0.167
 9120W        W16429   8.556   0.207   7.000
 9121W        W16430   5.815   3.922   6.817
 9122W        W16431   1.587   3.000   6.916
 9123W        W16432  19.101   5.382   0.166
 9124W        W16433  14.834   0.579   8.015
 9125W        W16434   5.427   2.040   6.461
 9126W        W16435   1.737   5.208   8.903
 9127W        W16436   4.692   4.175   7.415
 9128W        W16437   2.049   4.365   8.701
 9129W        W16438   5.569   2.054   0.507
 9130W        W16439  17.192   4.126   8.085
 9131W        W16440   1.571   0.806   8.630
 9132W        W16441   4.788   3.061   8.592
 9133W        W16442   5.244   0.709   6.330
 9134W        W16443   9.962   6.951   7.598
 9135W        W16444   9.050   4.540   8.460
 9136W        W16445   4.590   6.303   6.200
 9137W        W16446   5.578   5.248   0.308
 9138W        W16447   8.015   6.050   0.197
 9139W        W16448   7.572   1.073   8.228
 9140W        W16449  12.410   5.526   6.548
 9141W        W16450   5.723   5.340   9.821
 9142W        W16451   6.201   8.861   0.927
 9143W        W16452  18.917   0.811   6.638
 9144W        W16453  10.700   2.425   8.590
 9145W        W16454  15.610   2.353   7.024
 9146W        W16455  11.626   0.870   9.327
 9147W        W16456  17.768   5.046   6.665
 9148W        W16457   1.434   0.403   8.287
 9149W        W16458  19.701   4.628   0.708
 9150W        W16459  17.939   0.566   6.419
 9151W        W16460   5.734   1.124   7.024
 9152W        W16461  19.853   6.092   0.542
 9153W        W16462  11.272   4.183   8.538
 9154W        W16463   7.210   1.721   9.388
 9155W        W16464   8.581   7.838   0.545
 9156W        W16465   0.350   3.691   9.959
 9157W        W16466   0.693   3.436   9.680
 9158W        W16467  17.377   9.049   9.439
 9159W        W16468  15.127   5.395   7.463
 9160W        W16469   4.767   5.012   0.102
 9161W        W16470   0.673   7.215   0.272
 9162W        W16471  19.314   8.433   7.818
 9163W        W16472   8.481   7.808   9.563
 9164W        W16473   1.416   9.307   9.855
 9165W        W16474   7.024   1.777   8.528
 9166W        W16475   5.973   2.378   8.691
 9167W        W16476   3.103   7.780   7.934
 9168W        W16477   4.396   5.137   7.324
 9169W        W16478   2.278   1.782   8.257
 9170W        W16479   1.251   2.263   9.785
 9171W        W16480   5.462   2.973   9.287
 9172W        W16481   3.166   5.879   7.797
 9173W        W16482   5.135   3.275   6.756
 9174W        W16483  14.097   2.971   6.124
 9175W        W16484   1.180   8.474   6.579
 9176W        W16485   9.800   2.925   6.373
 9177W        W16486  14.097   7.282   9.253
 9178W        W16487  17.779   0.526   0.688
 9179W        W16488   6.488   3.123   7.849
 9180W        W16489  14.046   7.695   6.321
 9181W        W16490   6.036   0.084   0.750
 9182W        W16491   1.936   0.831   1.190
 9183W        W16492   8.622   0.368   7.540
 9184W        W16493  18.127   6.943   7.577
 9185W        W16494   2.071   7.533   6.357
 9186W        W16495   4.961   1.162   6.318
 9187W        W16496  17.690   9.488   0.268
 9188W        W16497   6.174   3.241   8.224
 9189W        W16498   3.277   1.944   6.554
 9190W        W16499  19.682   9.779   8.042
 9191W        W16500  15.470   2.248   0.776
 9192W        W16501  15.221   6.966   8.525
 9193W        W16502   3.195   3.340   0.828
 9194W        W16503  19.116   1.981   8.474
 9195W        W16504  15.431   9.280   8.980
 9196W        W16505   0.417   9.773   6.679
 9197W        W16506   0.507   2.308   7.427
 9198W        W16507   1.734   6.653   8.911
 9199W        W16508  12.670   0.222   8.386
 9200W        W16509  16.292   3.100   7.701
 9201W        W16510   7.479   1.626   8.303
 9202W        W16511   6.333   1.021   8.724
 9203W        W16512   2.023   7.048   0.917
 9204W        W16513   9.516   8.626   8.619
 9205W        W16514  17.802   8.212   9.934
 9206W        W16515  14.818   9.255   7.653
 9207W        W16516  12.910   9.674   9.955
 9208W        W16517  18.708   0.069   5.934
 9209W        W16518  12.536   3.621   9.123
 9210W        W16519  18.020   7.322   8.502
 9211W        W16520   5.776   5.373   7.722
 9212W        W16521   4.295   8.789   7.222
 9213W        W16522  13.277   2.717   9.573
 9214W        W16523   4.310   5.006   9.201
 9215W        W16524  11.341   4.074   6.239
 9216W        W16525   1.401   8.862   9.201
 9217W        W16526  18.600   5.618   9.651
 9218W        W16527   4.989   2.361   6.457
 9219W        W16528   5.464   1.021   9.733
 9220W        W16529   3.255   8.890   0.385
 9221W        W16530  15.870   8.663   8.633
 9222W        W16531   4.546   5.040   8.686
 9223W        W16532   6.614   1.178   6.907
 9224W        W16533  11.991   4.479   0.612
 9225W        W16534   4.620   7.496   0.307
 9226W        W16535  15.083   1.301   9.852
 9227W        W16536   5.717   4.723   6.610
 9228W        W16537   8.237   3.548   0.176
 9229W        W16538   7.022   6.908   9.364
 9230W        W16539  13.291   3.750   6.563
 9231W        W16540   0.089   1.588   8.093
 9232W        W16541   4.975   1.062   9.630
 9233W        W16542   6.249   6.699   7.527
 9234W        W16543  18.164   2.750   6.408
 9235W        W16544   1.633   8.361   9.273
 9236W        W16545  10.633   2.485   9.338
 9237W        W16546   9.375   8.891   6.397
 9238W        W16547  18.959   4.866   9.137
 9239W        W16548  18.332   0.194   8.208
 9240W        W16549   0.852   3.884   6.538
 9241W        W16550   0.799   5.576   6.411
 9242W        W16551  11.785   9.904   8.881
 9243W        W16552   6.052   8.023   0.440
 9244W        W16553   8.656   3.488   0.457
 9245W        W16554  19.669   5.080   6.977
 9246W        W16555  10.464   5.031   0.753
 9247W        W16556  17.179   9.942   7.511
 9248W        W16557   4.873   3.737   0.852
 9249W        W16558  16.516   8.562   8.439
 9250W        W16559   3.236   7.256   7.227
 9251W        W16560  17.092   7.889   6.168
 9252W        W16561   4.220   3.520   6.095
 9253W        W16562  13.296   7.422   8.878
 9254W        W16563  14.498   4.175   8.770
 9255W        W16564   3.131   7.033   9.759
 9256W        W16565   9.411   8.674   7.553
 9257W        W16566   7.212   1.341   8.727
 9258W        W16567   7.614   0.777   0.219
 9259W        W16568  11.183   7.034   8.363
 9260W        W16569   3.200   0.342   9.674
 9261W        W16570   4.367   7.337   6.967
 9262W        W16571   1.147   1.713   0.851
 9263W        W16572  11.561   6.996   8.689
 9264W        W16573   3.004   3.420   6.167
 9265W        W16574  16.098   2.813   0.838
 9266W        W16575   2.482   7.705   7.096
 9267W        W16576  12.706   4.906   0.073
 9268W        W16577  10.292   8.995   6.329
 9269W        W16578   5.289   4.704   9.871
 9270W        W16579   1.431   6.285   0.956
 9271W        W16580   5.281   8.844   6.337
 9272W        W16581   1.342   7.940   9.337
 9273W        W16582   1.567   1.312   6.635
 9274W        W16583  12.084   9.315   5.909
 9275W        W16584  11.822   4.880   6.000
 9276W        W16585  10.241   1.277   9.918
 9277W        W16586  17.690   0.441   0.193
 9278W        W16587  15.408   3.730   9.395
 9279W        W16588  10.518   5.427   0.399
 9280W        W16589   5.837   6.513   9.754
 9281W        W16590  19.783   1.178   8.064
 9282W        W16591   8.998   2.784   9.637
 9283W        W16592  13.410   9.641   0.220
 9284W        W16593  15.613   5.908   7.895
 9285W        W16594  15.380   9.194   7.823
 9286W        W16595  13.575   7.654   0.168
 9287W        W16596   6.511   5.869   7.445
 9288W        W16597  15.204   9.878   9.802
 9289W        W16598  13.546   6.426   8.396
 9290W        W16599   7.437   3.243   6.576
 9291W        W16600   6.653   2.464   9.791
 9292W        W16601   3.107   3.828   6.443
 9293W        W16602   4.601   1.948   7.549
 9294W        W16603   2.643   7.361   0.154
 9295W        W16604  10.905   4.475   8.859
 9296W        W16605  13.036   0.823   8.337
 9297W        W16606   6.292   0.332   7.733
 9298W        W16607   1.255   9.843   8.792
 9299W        W16608  16.967   3.024   0.858
 9300W        W16609  10.527   1.951   8.567
 9301W        W16610   8.631   8.363   8.219
 9302W        W16611  14.323   9.883   9.224
 9303W        W16612  11.014   1.603   9.756
 9304W        W16613  18.525   6.744   9.075
 9305W        W16614   7.643   4.879   8.440
 9306W        W16615  13.583   3.277   6.949
 9307W        W16616  10.162   1.221   7.993
 9308W        W16617   3.885   6.728   6.336
 9309W        W16618  19.370   6.958   9.546
 9310W        W16619   9.481   0.795   9.342
 9311W        W16620  14.352   9.379   7.907
 9312W        W16621   7.619   3.191   9.618
 9313W        W16622  10.207   6.350   0.690
 9314W        W16623  10.611   0.663   7.233
 9315W        W16624  15.463   8.715   0.343
 9316W        W16625   5.571   5.507   6.420
 9317W        W16626   0.118   4.033   0.710
 9318W        W16627   1.183   9.778   9.666
 9319W        W16628   9.038   3.027   7.085
 9320W        W16629  17.629   0.383   9.207
 9321W        W16630   9.003   5.147   8.922
 9322W        W16631  13.965   7.997   7.323
 9323W        W16632   4.214   6.910   8.299
 9324W        W16633  15.110   6.287   1.016
 9325W        W16634   9.759   0.198   9.289
 9326W        W16635   2.184   8.038   6.148
 9327W        W16636  12.753   6.081   8.468
 9328W        W16637   8.957   3.633   6.455
 9329W        W16638   7.023   4.619   6.407
 9330W        W16639   8.524   3.545   8.430
 9331W        W16640  15.288   2.544   9.405
 9332W        W16641  15.535   3.642   6.880
 9333W        W16642  16.051   1.460   7.864
 9334W        W16643   2.817   2.598   7.001
 9335W        W16644   3.561   3.576   7.268
 9336W        W16645   0.186   8.192   8.457
 9337W        W16646  16.309   4.894   6.657
 9338W        W16647  17.228   6.976   8.168
 9339W        W16648  10.939   9.360   0.274
 9340W        W16649   0.008   3.026   0.900
 9341W        W16650  13.483   6.153   0.099
 9342W        W16651   6.321   7.455   9.777
 9343W        W16652  11.663   1.229   6.369
 9344W        W16653   0.394   2.719   9.542
 9345W        W16654   7.681   1.668   9.605
 9346W        W16655  18.669   5.083   8.755
 9347W        W16656  19.899   7.002   9.840
 9348W        W16657   3.276   5.168   8.899
 9349W        W16658  15.783   3.197   0.758
 9350W        W16659   2.062   8.367   6.508
 9351W        W16660  16.981   0.266   7.949
 9352W        W16661   6.162   7.056   6.609
 9353W        W16662  19.796   0.533   9.675
 9354W        W16663   5.360   8.368   8.882
 9355W        W16664  12.977   5.516   7.058
 9356W        W16665  10.309   2.069   0.527
 9357W        W16666  17.504   6.866   0.040
 9358W        W16667   6.859   6.617   0.702
 9359W        W16668   1.583   4.863   9.746
 9360W        W16669   0.775   4.690   6.198
 9361W        W16670   0.768   8.279   6.365
 9362W        W16671   1.458   1.786   9.790
 9363W        W16672  12.542   7.888   7.576
 9364W        W16673  15.917   9.755   9.288
 9365W        W16674  11.378   2.344   7.844
 9366W        W16675  14.249   5.391   9.991
 9367W        W16676  17.401   7.877   8.235
 9368W        W16677  18.811   0.353   8.131
 9369W        W16678   8.485   3.026   0.651
 9370W        W16679  14.359   9.870   8.698
 9371W        W16680  17.137   3.305   7.302
 9372W        W16681  19.433   8.744   7.438
 9373W        W16682  14.578   6.279   9.601
 9374W        W16683   5.509   9.302   0.904
 9375W        W16684   0.291   9.358   6.979
 9376W        W16685   4.941   3.424   8.922
 9377W        W16686   4.233   9.981   0.465
 9378W        W16687   4.611   7.593   1.211
 9379W        W16688   3.004   8.611   9.158
 9380W        W16689  17.888   9.912   9.454
 9381W        W16690  13.770   6.817   8.134
 9382W        W16691  17.506   6.257   0.643
 9383W        W16692   0.979   0.805   0.375
 9384W        W16693  12.369   0.592   9.745
 9385W        W16694   5.006   2.117   9.630
 9386W        W16695  18.691   2.685   8.167
 9387W        W16696   6.441   6.933   8.859
 9388W        W16697  17.391   2.595   0.473
 9389W        W16698   5.227   5.932   9.325
 9390W        W16699   6.617   7.170   6.335
 9391W        W16700  13.406   8.761   8.154
 9392W        W16701   7.158   3.062   9.819
 9393W        W16702  15.602   3.854   5.595
 9394W        W16703  14.821   5.962   0.734
 9395W        W16704  18.679   6.450   6.657
 9396W        W16705   0.476   7.042   7.669
 9397W        W16706   6.263   4.997   5.875
 9398W        W16707  13.144   0.383   9.137
 9399W        W16708   9.002   0.093   6.767
 9400W        W16709   8.844   1.172   9.408
 9401W        W16710   2.150   9.953   8.073
 9402W        W16711  10.893   2.076   9.525
 9403W        W16712  11.263   6.609   7.797
 9404W        W16713  13.607   5.989   9.646
 9405W        W16714  13.493   3.628   0.118
 9406W        W16715   4.243   0.795   9.956
 9407W        W16716   9.250   6.494   8.821
 9408W        W16717  11.088   4.668   6.666
 9409W        W16718  14.383   1.596   0.278
 9410W        W16719   2.276   2.724   0.077
 9411W        W16720   0.220   7.156   6.173
 9412W        W16721   6.008   3.714   8.365
 9413W        W16722  19.717   6.002   8.485
 9414W        W16723   5.001   4.493   8.187
 9415W        W16724  17.916   3.587   7.049
 9416W        W16725  15.744   9.741   6.338
 9417W        W16726  17.636   7.870   7.726
 9418W        W16727  17.096   4.585   9.948
 9419W        W16728   0.416   4.118   7.933
 9420W        W16729  18.118   5.376   8.393
 9421W        W16730  16.001   2.155   8.812
 9422W        W16731  12.812   7.910   8.023
 9423W        W16732  17.764   9.374   9.706
 9424W        W16733  19.075   6.302   6.987
 9425W        W16734   0.311   8.423   7.646
 9426W        W16735   6.459   4.260   8.944
 9427W        W16736  15.808   3.154   7.930
 9428W        W16737  19.585   1.147   0.460
 9429W        W16738  11.688   1.186   8.923
 9430W        W16739  13.904   7.250   6.554
 9431W        W16740  15.878   1.795   6.203
 9432W        W16741  13.923   9.827   6.827
 9433W        W16742   9.794   5.033   9.399
 9434W        W16743   1.146   0.174   9.179
 9435W        W16744   5.297   4.091   6.218
 9436W        W16745   1.562   4.396   0.439
 9437W        W16746   8.499   1.034   9.768
 9438W        W16747  10.210   0.713   8.103
 9439W        W16748   0.888   0.383   8.155
 9440W        W16749  10.864   0.796   9.120
 9441W        W16750  18.963   4.835   8.180
 9442W        W16751  12.642   5.544   7.976
 9443W        W16752  17.223   8.739   6.590
 9444W        W16753   9.904   3.096   6.836
 9445W        W16754   6.074   8.560   8.318
 9446W        W16755   9.246   5.465   7.365
 9447W        W16756  10.080   5.997   6.803
 9448W        W16757   2.010   5.950   7.071
 9449W        W16758  13.690   4.917   9.799
 9450W        W16759  11.901   2.258   7.980
 9451W        W16760  19.107   6.106   7.911
 9452W        W16761   6.213   2.694   9.894
 9453W        W16762  11.972   9.374   6.545
 9454W        W16763   5.920   3.416   0.297
 9455W        W16764   7.523   3.570   7.481
 9456W        W16765  18.175   5.088   7.213
 9457W        W16766  15.344   7.367   6.681
 9458W        W16767  17.325   6.430   6.725
 9459W        W16768  18.535   1.161   1.450
 9460W        W16769   0.131   0.731   7.555
 9461W        W16770  15.179   8.871   8.181
 9462W        W16771  11.612   9.269   0.970
 9463W        W16772   6.038   5.022   1.068
 9464W        W16773   7.262   2.385   6.607
 9465W        W16774  15.807   2.519   0.097
 9466W        W16775   4.271   7.197   9.988
 9467W        W16776  12.015   0.827   0.312
 9468W        W16777   4.055   0.397   9.707
 9469W        W16778  19.723   2.262   9.927
 9470W        W16779  11.481   2.536   8.669
 9471W        W16780   9.234   1.626   0.875
 9472W        W16781   5.477   4.471   8.484
 9473W        W16782   1.804   6.969   9.325
 9474W        W16783  13.110   6.848   8.017
 9475W        W16784   5.225   4.721   6.781
 9476W        W16785   0.267   6.053   0.228
 9477W        W16786  14.792   7.022   0.670
 9478W        W16787  16.859   2.038   1.061
 9479W        W16788   1.558   3.120   6.416
 9480W        W16789  19.628   6.374   6.285
 9481W        W16790   5.525   6.279   0.502
 9482W        W16791  15.580   4.235   0.697
 9483W        W16792   2.458   8.676   8.392
 9484W        W16793  13.079   0.024   0.330
 9485W        W16794  11.301   7.038   9.139
 9486W        W16795   8.953   6.054   8.989
 9487W        W16796   2.318   3.025   0.765
 9488W        W16797   6.470   3.761   9.945
 9489W        W16798  11.113   4.480   7.904
 9490W        W16799  13.134   8.444   0.635
 9491W        W16800   1.326   1.104   9.251
 9492W        W16801  18.646   2.126   7.372
 9493W        W16802   5.310   7.230   6.122
 9494W        W16803  16.021   5.981   0.099
 9495W        W16804  19.394   8.411   6.482
 9496W        W16805   8.628   5.743   7.485
 9497W        W16806  19.480   5.929   6.985
 9498W        W16807   6.337   1.998   8.092
 9499W        W16808  12.813   3.189   9.121
 9500W        W16809   9.887   6.867   9.673
 9501W        W16810  12.564   1.495   6.987
 9502W        W16811  13.310   3.190   9.327
 9503W        W16812  19.907   4.949   0.192
 9504W        W16813  18.871   7.859   0.226
 9505W        W16814   5.704   0.978   7.511
 9506W        W16815  16.469   0.273   6.220
 9507W        W16816  12.701   1.501   9.257
 9508W        W16817   2.845   2.944   0.747
 9509W        W16818   8.546   3.255   7.988
 9510W        W16819   9.501   5.473   9.416
 9511W        W16820  12.954   4.201   6.580
 9512W        W16821  17.604   5.149   7.690
 9513W        W16822   0.475   6.382   9.058
 9514W        W16823   8.822   0.861   0.125
 9515W        W16824   5.550   3.455   9.601
 9516W        W16825   8.073   9.969   6.414
 9517W        W16826  17.680   9.090   7.994
 9518W        W16827  11.068   0.603   0.002
 9519W        W16828   0.303   6.865   0.140
 9520W        W16829  17.730   2.761   7.196
 9521W        W16830   3.505   2.045   7.840
 9522W        W16831   8.009   8.473   7.443
 9523W        W16832  17.376   9.325   6.947
 9524W        W16833  10.088   2.469   6.393
 9525W        W16834  10.598   7.308   8.098
 9526W        W16835  11.977   4.700   6.978
 9527W        W16836  18.244   8.900   6.861
 9528W        W16837  18.685   1.733   8.684
 9529W        W16838   0.771   9.856   9.945
 9530W        W16839  19.934   4.957   9.270
 9531W        W16840  19.117   2.098   7.118
 9532W        W16841   2.229   2.622   8.298
 9533W        W16842   3.285   2.237   8.748
 9534W        W16843   0.583   3.823   8.775
 9535W        W16844  19.648   7.843   8.869
 9536W        W16845   2.566   3.080   0.311
 9537W        W16846  14.161   8.497   8.806
 9538W        W16847  16.954   6.502   8.047
 9539W        W16848   9.950   3.987   5.748
 9540W        W16849   3.977   7.676   9.172
 9541W        W16850   5.702   1.087   9.294
 9542W        W16851  14.959   5.495   9.575
 9543W        W16852  15.570   6.260   7.050
 9544W        W16853  16.688   0.212   9.772
 9545W        W16854   4.662   9.740   8.684
 9546W        W16855  16.404   2.398   0.696
 9547W        W16856   0.658   0.425   7.011
 9548W        W16857   3.239   9.815   9.970
 9549W        W16858   1.270   4.503   7.458
 9550W        W16859   2.805   8.931   7.496
 9551W        W16860  15.752   1.667   9.717
 9552W        W16861  17.140   9.021   8.964
 9553W        W16862  15.554   4.433   8.003
 9554W        W16863  18.713   4.935   7.420
 9555W        W16864   2.341   2.496   6.221
 9556W        W16865   7.582   3.735   6.453
 9557W        W16866   3.696   9.289   9.389
 9558W        W16867   3.293   6.319   7.540
 9559W        W16868  13.577   8.082   7.002
 9560W        W16869   3.988   1.466   7.848
 9561W        W16870  12.970   1.501   6.066
 9562W        W16871   9.576   6.591   9.310
 9563W        W16872  14.082   8.040   9.655
 9564W        W16873  12.237   9.984   8.580
 9565W        W16874  10.244   5.007   0.296
 9566W        W16875   8.625   0.747   6.152
 9567W        W16876   9.577   4.341   8.790
 9568W        W16877  17.556   7.775   6.951
 9569W        W16878   4.042   4.577   9.375
 9570W        W16879   6.186   8.442   1.200
 9571W        W16880   2.257   7.264   7.328
 9572W        W16881   7.843   9.359   7.759
 9573W        W16882   8.300   8.274   6.215
 9574W        W16883  19.050   8.775   6.630
 9575W        W16884  14.869   2.422   6.283
 9576W        W16885   5.198   4.788   7.309
 9577W        W16886  13.334   2.693   8.573
 9578W        W16887  19.332   6.107   9.867
 9579W        W16888  12.941   8.405   9.128
 9580W        W16889   7.872   3.861   7.213
 9581W        W16890  16.382   7.123   8.055
 9582W        W16891   9.347   6.422   7.425
 9583W        W16892  18.107   0.216   9.875
 9584W        W16893  15.876   4.895   7.518
 9585W        W16894   2.988   5.974   7.287
 9586W        W16895  15.029   5.884   0.287
 9587W        W16896  12.277   9.408   0.446
 9588W        W16897   6.030   4.017   7.656
 9589W        W16898  10.103   4.193   7.105
 9590W        W16899  14.016   5.094   7.972
 9591W        W16900   5.468   2.471   9.502
 9592W        W16901   5.068   8.470   6.601
 9593W        W16902  10.194   4.419   7.589
 9594W        W16903  16.672   3.461   9.580
 9595W        W16904   6.762   7.481   0.071
 9596W        W16905  12.093   5.246   0.121
 9597W        W16906  14.799   2.400   6.806
 9598W        W16907   6.675   1.585   0.965
 9599W        W16908  17.442   2.007   6.399
 9600W        W16909   4.884   7.356   9.875
 9601W        W16910  16.044   4.439   7.750
 9602W        W16911   4.452   2.574   6.357
 9603W        W16912  15.583   2.291   8.059
 9604W        W16913  13.091   6.005   7.110
 9605W        W16914  18.855   0.697   9.422
 9606W        W16915  16.286   3.983   8.178
 9607W        W16916  18.594   5.377   0.109
 9608W        W16917  10.281   1.080   6.405
 9609W        W16918  12.858   7.060   8.402
 9610W        W16919   4.200   4.209   7.267
 9611W        W16920  10.453   7.788   8.006
 9612W        W16921  18.654   1.268   8.938
 9613W        W16922  16.504   8.480   6.428
 9614W        W16923   0.954   8.411   0.690
 9615W        W16924  14.039   7.871   0.213
 9616W        W16925   9.749   7.719   8.618
 9617W        W16926  15.255   1.344   7.935
 9618W        W16927  16.399   1.313   9.760
 9619W        W16928   9.269   4.720   8.902
 9620W        W16929  13.437   4.449   8.089
 9621W        W16930   2.486   0.408   9.608
 9622W        W16931   3.997   0.328   0.773
 9623W        W16932  14.896   4.561   9.203
 9624W        W16933  14.046   2.128   9.737
 9625W        W16934   6.651   7.223   7.342
 9626W        W16935  18.079   3.768   7.895
 9627W        W16936  17.501   7.749   9.484
 9628W        W16937  16.866   1.142   8.457
 9629W        W16938  12.592   3.509   8.623
 9630W        W16939   0.082   5.512   9.935
 9631W        W16940  18.594   6.051   7.845
 9632W        W16941   8.124   6.312   9.567
 9633W        W16942  15.256   0.829   7.789
 9634W        W16943  10.195   1.470   6.745
 9635W        W16944  16.826   3.446   9.091
 9636W        W16945   3.452   1.155   0.535
 9637W        W16946  18.113   0.367   9.384
 9638W        W16947  18.117   6.638   9.391
 9639W        W16948  13.642   3.234   6.018
 9640W        W16949  13.890   6.926   0.479
 9641W        W16950   4.116   7.628   0.266
 9642W        W16951   0.391   8.375   8.890
 9643W        W16952  11.362   1.564   7.585
 9644W        W16953  10.419   5.625   6.641
 9645W        W16954   7.209   5.546   8.002
 9646W        W16955   5.960   1.370   8.818
 9647W        W16956  10.819   8.756   8.177
 9648W        W16957  14.523   0.122   0.953
 9649W        W16958   7.955   8.403   9.236
 9650W        W16959   8.005   4.511   6.931
 9651W        W16960  13.526   4.015   8.334
 9652W        W16961   2.681   5.422   7.000
 9653W        W16962  11.282   7.470   7.482
 9654W        W16963   9.388   3.890   6.627
 9655W        W16964  15.014   0.804   0.234
 9656W        W16965   7.956   3.187   6.613
 9657W        W16966   7.682   8.117   9.561
 9658W        W16967   4.714   0.814   0.781
 9659W        W16968  14.152   5.167   0.514
 9660W        W16969  18.229   5.957   7.475
 9661W        W16970  15.888   4.100   6.906
 9662W        W16971   4.168   2.313   9.290
 9663W        W16972  10.382   0.301   6.603
 9664W        W16973   1.259   4.059   7.700
 9665W        W16974   8.527   9.077   9.737
 9666W        W16975  10.972   7.741   9.833
 9667W        W16976  16.720   3.632   0.071
 9668W        W16977  15.347   5.178   8.699
 9669W        W16978  16.736   0.480   0.505
 9670W        W16979  19.412   6.853   6.157
 9671W        W16980  17.309   2.170   9.731
 9672W        W16981  17.503   7.302   9.782
 9673W        W16982  17.414   0.803   8.969
 9674W        W16983  15.860   8.818   6.534
 9675W        W16984  10.611   6.136   7.511
 9676W        W16985  16.809   4.398   0.832
 9677W        W16986  11.764   6.526   8.823
 9678W        W16987   5.442   9.215   6.041
 9679W        W16988   4.781   6.015   7.019
 9680W        W16989   6.391   9.698   8.529
 9681W        W16990  14.979   5.170   7.957
 9682W        W16991   5.109   9.490   8.580
 9683W        W16992  10.179   1.772   0.934
 9684W        W16993  15.104   6.149   6.852
 9685W        W16994  16.270   4.595   5.806
 9686W        W16995   2.357   8.776   0.408
 9687W        W16996  18.820   6.994   0.849
 9688W        W16997  15.272   7.639   7.109
 9689W        W16998   7.362   8.428   9.861
 9690W        W16999   2.627   5.073   7.781
 9691W        W17000   3.860   3.127   9.766
 9692W        W17001  12.588   9.774   7.076
 9693W        W17002  10.025   5.315   9.025
 9694W        W17003  15.777   7.675   7.772
 9695W        W17004   0.786   2.980   6.267
 9696W        W17005   4.273   4.066   0.317
 9697W        W17006   3.108   2.939   6.227
 9698W        W17007   3.792   8.879   0.689
 9699ION     NA17008  15.531   6.116   8.699
 9700ION     NA17009  17.019   6.543   9.411
 9701ION     NA17010   5.800   3.086   8.816
  20.00000  10.00000  10.00000
