#include "martini_v3.0.0.itp"
#include "martini_v3.0.0_ffbonded_v2.itp"
#include "martini_v3.0.0_phospholipids_PC_v2.itp"
#include "martini_v3.0.0_solvents_v1.itp"
#include "PF10C.itp"
#include "martini_v3.0.0_ions_v1.itp"

[ system ]
; name
Protein in INSANE! Membrane UpperLeaflet>DOPC=1 LowerLeaflet>DOPC=1


[ molecules ]
; name  number
pf10C          3
DOPC           324
DOPC           338
W              9033
NA             3
