PF10C
   30
    1PF10C   C1    1   1.836   4.920   1.423
    1PF10C   F2    2   1.684   0.127   1.441
    1PF10C   F3    3   1.806   0.245   1.581
    1PF10C   F4    4   1.845   0.086   1.742
    1PF10C   F5    5   1.821   0.223   1.912
    1PF10C   F6    6   1.956   0.388   1.827
    1PF10C   F7    7   1.826   0.556   1.887
    1PF10C   F8    8   1.795   0.483   2.103
    1PF10C   F9    9   1.809   0.682   2.195
    1PF10C  F10   10   1.651   0.782   2.061
    2PF10C   C1   11   3.093   2.995   0.119
    2PF10C   F2   12   3.246   3.103   4.947
    2PF10C   F3   13   3.424   3.000   0.053
    2PF10C   F4   14   3.588   3.118   4.913
    2PF10C   F5   15   3.715   2.944   4.869
    2PF10C   F6   16   3.708   2.857   0.110
    2PF10C   F7   17   3.693   2.647   0.046
    2PF10C   F8   18   3.865   2.658   4.864
    2PF10C   F9   19   3.952   2.462   4.913
    2PF10C  F10   20   3.757   2.343   4.888
    3PF10C   C1   21   0.311   4.838   0.854
    3PF10C   F2   22   0.243   4.646   0.739
    3PF10C   F3   23   0.443   4.592   0.664
    3PF10C   F4   24   0.395   4.391   0.563
    3PF10C   F5   25   0.523   4.422   0.387
    3PF10C   F6   26   0.603   4.207   0.378
    3PF10C   F7   27   0.595   4.189   0.159
    3PF10C   F8   28   0.698   4.389   0.115
    3PF10C   F9   29   0.820   4.315   4.918
    3PF10C  F10   30   0.645   4.223   4.801
   4.97096   4.97096   4.97096
