INSANE! Membrane UpperLeaflet>DOPC:PF10C=99.0:1.0 LowerLeaflet>DOPC:PF10C=99.0:1.0
16967
    1DOPC   NC3    1  13.464   8.861   7.458
    1DOPC   PO4    2  13.192   9.145   7.345
    1DOPC   GL1    3  13.238   9.115   6.877
    1DOPC   GL2    4  13.467   8.905   6.970
    1DOPC   C1A    5  13.206   9.205   6.414
    1DOPC   D2A    6  13.123   9.248   5.903
    1DOPC   C3A    7  13.297   9.085   5.472
    1DOPC   C4A    8  13.390   8.858   5.017
    1DOPC   C1B    9  13.669   8.622   6.673
    1DOPC   D2B   10  13.789   8.319   6.285
    1DOPC   C3B   11  13.694   8.356   5.818
    1DOPC   C4B   12  13.586   8.532   5.361
    2DOPC   NC3   13   1.610   4.529   7.402
    2DOPC   PO4   14   1.322   4.482   7.126
    2DOPC   GL1   15   1.440   4.347   6.750
    2DOPC   GL2   16   1.521   4.058   6.864
    2DOPC   C1A   17   1.529   4.330   6.308
    2DOPC   D2A   18   1.613   4.070   5.887
    2DOPC   C3A   19   1.718   4.330   5.516
    2DOPC   C4A   20   1.984   4.694   5.318
    2DOPC   C1B   21   1.711   3.848   6.492
    2DOPC   D2B   22   1.924   3.685   6.047
    2DOPC   C3B   23   2.079   3.921   5.655
    2DOPC   C4B   24   2.245   4.245   5.306
    3DOPC   NC3   25   7.998   8.226   7.153
    3DOPC   PO4   26   7.902   7.862   7.282
    3DOPC   GL1   27   7.985   7.827   6.869
    3DOPC   GL2   28   7.848   7.629   6.730
    3DOPC   C1A   29   7.961   8.197   6.587
    3DOPC   D2A   30   7.952   8.444   6.131
    3DOPC   C3A   31   7.907   8.396   5.656
    3DOPC   C4A   32   8.327   8.280   5.414
    3DOPC   C1B   33   7.944   7.759   6.304
    3DOPC   D2B   34   8.074   7.972   5.873
    3DOPC   C3B   35   8.052   7.842   5.416
    3DOPC   C4B   36   7.976   7.780   4.927
    4DOPC   NC3   37   9.530   8.127   7.508
    4DOPC   PO4   38   9.369   8.429   7.304
    4DOPC   GL1   39   9.713   8.657   7.159
    4DOPC   GL2   40   9.522   8.858   7.050
    4DOPC   C1A   41   9.990   8.603   6.816
    4DOPC   D2A   42  10.083   8.619   6.319
    4DOPC   C3A   43  10.092   8.556   5.848
    4DOPC   C4A   44  10.212   8.597   5.365
    4DOPC   C1B   45   9.474   8.914   6.614
    4DOPC   D2B   46   9.287   9.000   6.153
    4DOPC   C3B   47   9.387   9.061   5.704
    4DOPC   C4B   48   9.626   8.983   5.282
    5DOPC   NC3   49  18.102   8.033   7.472
    5DOPC   PO4   50  18.223   7.699   7.278
    5DOPC   GL1   51  18.077   7.832   6.905
    5DOPC   GL2   52  18.093   8.135   6.977
    5DOPC   C1A   53  18.134   7.687   6.486
    5DOPC   D2A   54  17.953   7.519   6.043
    5DOPC   C3A   55  17.898   7.717   5.598
    5DOPC   C4A   56  17.876   7.905   5.126
    5DOPC   C1B   57  18.051   8.481   6.661
    5DOPC   D2B   58  18.095   8.747   6.218
    5DOPC   C3B   59  17.907   8.637   5.794
    5DOPC   C4B   60  17.773   8.375   5.383
    6DOPC   NC3   61  13.193   9.625   7.517
    6DOPC   PO4   62  13.147   9.762   7.140
    6DOPC   GL1   63  13.268   9.570   6.745
    6DOPC   GL2   64  12.979   9.459   6.752
    6DOPC   C1A   65  13.409   9.674   6.306
    6DOPC   D2A   66  13.405   9.704   5.789
    6DOPC   C3A   67  13.526   9.603   5.327
    6DOPC   C4A   68  13.606   9.519   4.834
    6DOPC   C1B   69  12.919   9.637   6.350
    6DOPC   D2B   70  12.892   9.716   5.870
    6DOPC   C3B   71  13.029   9.559   5.456
    6DOPC   C4B   72  13.166   9.329   5.039
    7DOPC   NC3   73  19.665   9.953   7.245
    7DOPC   PO4   74  19.515   0.304   7.100
    7DOPC   GL1   75  19.455   0.124   6.752
    7DOPC   GL2   76  19.482   9.824   6.821
    7DOPC   C1A   77  19.664   0.092   6.364
    7DOPC   D2A   78  19.715   9.918   5.887
    7DOPC   C3A   79  19.570   9.849   5.431
    7DOPC   C4A   80  19.384   9.738   4.971
    7DOPC   C1B   81  19.785   9.633   6.525
    7DOPC   D2B   82   0.045   9.536   6.097
    7DOPC   C3B   83  19.863   9.465   5.667
    7DOPC   C4B   84  19.600   9.348   5.266
    8DOPC   NC3   85  10.940   6.091   7.228
    8DOPC   PO4   86  10.933   5.687   7.236
    8DOPC   GL1   87  11.136   5.482   6.941
    8DOPC   GL2   88  11.437   5.514   7.025
    8DOPC   C1A   89  11.029   5.541   6.509
    8DOPC   D2A   90  10.848   5.554   6.038
    8DOPC   C3A   91  11.078   5.727   5.648
    8DOPC   C4A   92  11.345   5.725   5.213
    8DOPC   C1B   93  11.640   5.476   6.615
    8DOPC   D2B   94  11.709   5.514   6.103
    8DOPC   C3B   95  11.575   5.816   5.734
    8DOPC   C4B   96  11.381   6.193   5.429
    9DOPC   NC3   97  12.095   9.247   7.127
    9DOPC   PO4   98  12.037   8.855   7.234
    9DOPC   GL1   99  11.760   8.737   6.883
    9DOPC   GL2  100  11.808   9.013   6.847
    9DOPC   C1A  101  11.879   8.587   6.498
    9DOPC   D2A  102  12.113   8.393   6.098
    9DOPC   C3A  103  12.089   8.535   5.650
    9DOPC   C4A  104  12.179   8.627   5.172
    9DOPC   C1B  105  12.115   9.168   6.586
    9DOPC   D2B  106  12.152   9.150   6.088
    9DOPC   C3B  107  12.031   9.044   5.643
    9DOPC   C4B  108  11.760   8.899   5.237
   10DOPC   NC3  109   1.803   8.974   7.397
   10DOPC   PO4  110   1.579   8.687   7.225
   10DOPC   GL1  111   1.832   8.745   6.894
   10DOPC   GL2  112   1.863   9.044   6.937
   10DOPC   C1A  113   1.803   8.784   6.464
   10DOPC   D2A  114   1.660   8.781   5.984
   10DOPC   C3A  115   1.727   8.479   5.625
   10DOPC   C4A  116   1.948   8.164   5.309
   10DOPC   C1B  117   2.019   9.271   6.562
   10DOPC   D2B  118   2.178   9.421   6.101
   10DOPC   C3B  119   2.331   9.313   5.655
   10DOPC   C4B  120   2.236   9.022   5.253
   11DOPC   NC3  121  12.246   9.925   7.526
   11DOPC   PO4  122  12.282   9.799   7.144
   11DOPC   GL1  123  12.106   9.601   6.798
   11DOPC   GL2  124  11.831   9.675   6.891
   11DOPC   C1A  125  12.117   9.633   6.341
   11DOPC   D2A  126  12.159   9.601   5.836
   11DOPC   C3A  127  12.299   9.627   5.392
   11DOPC   C4A  128  12.319   9.598   4.893
   11DOPC   C1B  129  11.658   9.857   6.506
   11DOPC   D2B  130  11.451   9.991   6.064
   11DOPC   C3B  131  11.670   9.806   5.698
   11DOPC   C4B  132  11.807   9.440   5.404
   12DOPC   NC3  133   0.501   0.630   7.308
   12DOPC   PO4  134   0.282   0.290   7.290
   12DOPC   GL1  135   0.272   0.442   6.897
   12DOPC   GL2  136   0.575   0.442   6.861
   12DOPC   C1A  137   0.113   0.360   6.500
   12DOPC   D2A  138  19.960   0.346   6.030
   12DOPC   C3A  139   0.242   0.420   5.671
   12DOPC   C4A  140   0.235   0.329   5.194
   12DOPC   C1B  141   0.680   0.488   6.417
   12DOPC   D2B  142   0.764   0.514   5.900
   12DOPC   C3B  143   0.708   0.512   5.418
   12DOPC   C4B  144   0.638   0.483   4.914
   13DOPC   NC3  145  17.547   6.461   7.483
   13DOPC   PO4  146  17.824   6.303   7.238
   13DOPC   GL1  147  17.779   6.587   6.884
   13DOPC   GL2  148  17.486   6.621   6.977
   13DOPC   C1A  149  17.666   6.581   6.446
   13DOPC   D2A  150  17.508   6.581   5.974
   13DOPC   C3A  151  17.530   6.477   5.514
   13DOPC   C4A  152  17.530   6.394   5.014
   13DOPC   C1B  153  17.183   6.637   6.618
   13DOPC   D2B  154  16.852   6.532   6.235
   13DOPC   C3B  155  16.963   6.497   5.771
   13DOPC   C4B  156  17.093   6.554   5.289
   14DOPC   NC3  157   2.580   2.864   7.509
   14DOPC   PO4  158   2.538   3.030   7.142
   14DOPC   GL1  159   2.441   2.745   6.797
   14DOPC   GL2  160   2.695   2.602   6.894
   14DOPC   C1A  161   2.448   2.541   6.396
   14DOPC   D2A  162   2.545   2.373   5.935
   14DOPC   C3A  163   2.565   2.595   5.522
   14DOPC   C4A  164   2.599   2.879   5.119
   14DOPC   C1B  165   2.936   2.421   6.545
   14DOPC   D2B  166   3.174   2.287   6.114
   14DOPC   C3B  167   3.029   2.499   5.724
   14DOPC   C4B  168   3.065   2.819   5.347
   15DOPC   NC3  169   0.355   8.755   7.414
   15DOPC   PO4  170   0.727   8.810   7.263
   15DOPC   GL1  171   0.729   8.741   6.820
   15DOPC   GL2  172   0.426   8.684   6.917
   15DOPC   C1A  173   0.785   8.774   6.354
   15DOPC   D2A  174   0.655   8.711   5.863
   15DOPC   C3A  175   0.664   8.548   5.414
   15DOPC   C4A  176   0.671   8.559   4.906
   15DOPC   C1B  177   0.360   8.556   6.514
   15DOPC   D2B  178   0.273   8.417   6.052
   15DOPC   C3B  179   0.206   8.644   5.656
   15DOPC   C4B  180   0.235   8.800   5.199
   16DOPC   NC3  181  12.396   6.740   7.467
   16DOPC   PO4  182  12.755   6.901   7.522
   16DOPC   GL1  183  12.651   6.953   7.086
   16DOPC   GL2  184  12.882   6.781   7.037
   16DOPC   C1A  185  12.540   7.105   6.669
   16DOPC   D2A  186  12.656   7.134   6.171
   16DOPC   C3A  187  12.450   7.098   5.754
   16DOPC   C4A  188  12.352   6.870   5.328
   16DOPC   C1B  189  12.920   6.764   6.604
   16DOPC   D2B  190  12.720   6.617   6.154
   16DOPC   C3B  191  12.721   6.673   5.690
   16DOPC   C4B  192  12.736   6.554   5.212
   17DOPC   NC3  193   3.109   9.327   7.045
   17DOPC   PO4  194   3.116   9.721   6.979
   17DOPC   GL1  195   3.268   9.687   6.574
   17DOPC   GL2  196   3.415   9.433   6.683
   17DOPC   C1A  197   3.385   9.551   6.176
   17DOPC   D2A  198   3.550   9.187   5.893
   17DOPC   C3A  199   3.295   9.083   5.536
   17DOPC   C4A  200   3.111   8.917   5.113
   17DOPC   C1B  201   3.625   9.140   6.394
   17DOPC   D2B  202   3.694   8.732   6.080
   17DOPC   C3B  203   3.726   8.796   5.606
   17DOPC   C4B  204   3.640   8.977   5.150
   18DOPC   NC3  205   2.314   0.105   7.195
   18DOPC   PO4  206   2.673   9.941   7.154
   18DOPC   GL1  207   2.657   9.848   6.750
   18DOPC   GL2  208   2.899   9.962   6.642
   18DOPC   C1A  209   2.395   9.797   6.382
   18DOPC   D2A  210   2.562   9.733   5.898
   18DOPC   C3A  211   2.593   9.740   5.433
   18DOPC   C4A  212   2.262   9.526   5.139
   18DOPC   C1B  213   2.913   9.712   6.257
   18DOPC   D2B  214   3.025   9.451   5.818
   18DOPC   C3B  215   2.876   9.330   5.375
   18DOPC   C4B  216   2.654   9.161   4.962
   19DOPC   NC3  217  12.286   8.936   7.685
   19DOPC   PO4  218  12.522   8.986   7.358
   19DOPC   GL1  219  12.355   8.899   6.895
   19DOPC   GL2  220  12.504   9.171   6.911
   19DOPC   C1A  221  12.381   8.764   6.432
   19DOPC   D2A  222  12.460   8.771   5.919
   19DOPC   C3A  223  12.483   8.898   5.447
   19DOPC   C4A  224  12.508   8.910   4.923
   19DOPC   C1B  225  12.778   9.032   6.606
   19DOPC   D2B  226  12.926   8.799   6.175
   19DOPC   C3B  227  12.926   8.798   5.699
   19DOPC   C4B  228  12.923   8.824   5.201
   20DOPC   NC3  229  12.033   2.976   7.372
   20DOPC   PO4  230  12.357   2.913   7.163
   20DOPC   GL1  231  12.160   2.937   6.822
   20DOPC   GL2  232  11.854   2.948   6.909
   20DOPC   C1A  233  12.333   2.945   6.413
   20DOPC   D2A  234  12.612   3.141   6.040
   20DOPC   C3A  235  12.369   2.924   5.700
   20DOPC   C4A  236  12.188   2.547   5.433
   20DOPC   C1B  237  11.686   2.831   6.506
   20DOPC   D2B  238  11.755   2.749   6.014
   20DOPC   C3B  239  11.700   2.802   5.546
   20DOPC   C4B  240  11.599   3.049   5.131
   21DOPC   NC3  241  16.454   2.532   7.224
   21DOPC   PO4  242  16.137   2.634   7.012
   21DOPC   GL1  243  16.425   2.452   6.717
   21DOPC   GL2  244  16.626   2.679   6.813
   21DOPC   C1A  245  16.464   2.453   6.254
   21DOPC   D2A  246  16.478   2.530   5.744
   21DOPC   C3A  247  16.376   2.902   5.468
   21DOPC   C4A  248  16.280   3.389   5.417
   21DOPC   C1B  249  16.620   2.898   6.438
   21DOPC   D2B  250  16.579   2.998   5.954
   21DOPC   C3B  251  16.866   2.878   5.607
   21DOPC   C4B  252  17.138   2.922   5.208
   22DOPC   NC3  253  10.186   5.494   7.305
   22DOPC   PO4  254  10.544   5.427   7.480
   22DOPC   GL1  255  10.786   5.260   7.133
   22DOPC   GL2  256  10.595   5.479   6.975
   22DOPC   C1A  257  10.900   5.095   6.734
   22DOPC   D2A  258  10.842   5.056   6.233
   22DOPC   C3A  259  10.862   5.038   5.762
   22DOPC   C4A  260  10.808   4.989   5.269
   22DOPC   C1B  261  10.526   5.438   6.523
   22DOPC   D2B  262  10.380   5.309   6.055
   22DOPC   C3B  263  10.388   5.218   5.589
   22DOPC   C4B  264  10.294   5.157   5.102
   23DOPC   NC3  265   0.328   3.213   7.608
   23DOPC   PO4  266   0.652   3.224   7.369
   23DOPC   GL1  267   0.545   3.124   6.969
   23DOPC   GL2  268   0.815   3.012   6.920
   23DOPC   C1A  269   0.367   3.181   6.569
   23DOPC   D2A  270   0.356   2.910   6.156
   23DOPC   C3A  271   0.303   3.005   5.712
   23DOPC   C4A  272   0.299   3.228   5.284
   23DOPC   C1B  273   0.746   2.823   6.519
   23DOPC   D2B  274   0.756   2.502   6.127
   23DOPC   C3B  275   0.625   2.553   5.678
   23DOPC   C4B  276   0.426   2.737   5.264
   24DOPC   NC3  277  12.719   7.355   7.326
   24DOPC   PO4  278  13.079   7.187   7.242
   24DOPC   GL1  279  12.981   7.190   6.862
   24DOPC   GL2  280  12.802   7.429   6.859
   24DOPC   C1A  281  13.059   7.226   6.457
   24DOPC   D2A  282  13.104   6.927   6.079
   24DOPC   C3A  283  12.994   7.163   5.712
   24DOPC   C4A  284  12.837   7.046   5.279
   24DOPC   C1B  285  12.674   7.557   6.434
   24DOPC   D2B  286  12.703   7.597   5.924
   24DOPC   C3B  287  12.654   7.470   5.469
   24DOPC   C4B  288  12.661   7.420   4.965
   25DOPC   NC3  289   5.451   0.268   7.085
   25DOPC   PO4  290   5.750   0.011   7.174
   25DOPC   GL1  291   5.990   9.952   6.819
   25DOPC   GL2  292   5.801   0.134   6.649
   25DOPC   C1A  293   6.265   9.765   6.505
   25DOPC   D2A  294   6.369   9.601   6.030
   25DOPC   C3A  295   6.337   9.630   5.563
   25DOPC   C4A  296   6.133   9.747   5.129
   25DOPC   C1B  297   5.884   9.968   6.217
   25DOPC   D2B  298   5.872   9.719   5.768
   25DOPC   C3B  299   5.717   9.544   5.345
   25DOPC   C4B  300   5.588   9.402   4.882
   26DOPC   NC3  301   4.985   3.136   7.499
   26DOPC   PO4  302   4.922   3.216   7.112
   26DOPC   GL1  303   5.227   3.058   6.801
   26DOPC   GL2  304   5.272   3.362   6.785
   26DOPC   C1A  305   5.379   3.054   6.379
   26DOPC   D2A  306   5.558   3.336   5.999
   26DOPC   C3A  307   5.319   3.344   5.592
   26DOPC   C4A  308   4.998   3.129   5.272
   26DOPC   C1B  309   5.312   3.568   6.385
   26DOPC   D2B  310   5.393   3.834   5.957
   26DOPC   C3B  311   5.309   3.911   5.499
   26DOPC   C4B  312   5.166   3.837   5.030
   27DOPC   NC3  313   1.597   9.611   7.395
   27DOPC   PO4  314   1.892   9.451   7.189
   27DOPC   GL1  315   1.624   9.375   6.795
   27DOPC   GL2  316   1.745   9.660   6.771
   27DOPC   C1A  317   1.531   9.241   6.353
   27DOPC   D2A  318   1.412   9.206   5.848
   27DOPC   C3A  319   1.640   9.221   5.415
   27DOPC   C4A  320   1.857   9.230   4.960
   27DOPC   C1B  321   1.827   9.723   6.335
   27DOPC   D2B  322   2.050   9.873   5.904
   27DOPC   C3B  323   2.146   9.971   5.453
   27DOPC   C4B  324   2.372   0.017   5.011
   28DOPC   NC3  325  11.214   7.248   7.473
   28DOPC   PO4  326  11.172   7.612   7.308
   28DOPC   GL1  327  10.993   7.684   6.912
   28DOPC   GL2  328  11.037   7.390   6.893
   28DOPC   C1A  329  11.154   7.819   6.539
   28DOPC   D2A  330  11.253   7.496   6.175
   28DOPC   C3A  331  11.152   7.298   5.766
   28DOPC   C4A  332  11.031   7.094   5.330
   28DOPC   C1B  333  11.426   7.405   6.683
   28DOPC   D2B  334  11.729   7.581   6.327
   28DOPC   C3B  335  11.676   7.497   5.854
   28DOPC   C4B  336  11.529   7.298   5.412
   29DOPC   NC3  337  12.530   0.270   7.284
   29DOPC   PO4  338  12.444   0.623   7.118
   29DOPC   GL1  339  12.481   0.418   6.746
   29DOPC   GL2  340  12.792   0.426   6.810
   29DOPC   C1A  341  12.465   0.424   6.293
   29DOPC   D2A  342  12.355   0.454   5.812
   29DOPC   C3A  343  12.426   0.473   5.346
   29DOPC   C4A  344  12.378   0.499   4.850
   29DOPC   C1B  345  12.931   0.584   6.407
   29DOPC   D2B  346  12.847   0.622   5.906
   29DOPC   C3B  347  12.929   0.517   5.449
   29DOPC   C4B  348  12.891   0.306   4.990
   30DOPC   NC3  349   1.199   0.310   7.236
   30DOPC   PO4  350   0.805   0.223   7.225
   30DOPC   GL1  351   0.991   0.032   6.850
   30DOPC   GL2  352   1.016   0.341   6.797
   30DOPC   C1A  353   1.001   0.023   6.400
   30DOPC   D2A  354   1.081   0.117   5.912
   30DOPC   C3A  355   1.127  -0.000   5.461
   30DOPC   C4A  356   1.061   9.806   5.018
   30DOPC   C1B  357   1.198   0.493   6.420
   30DOPC   D2B  358   1.409   0.569   5.979
   30DOPC   C3B  359   1.233   0.493   5.554
   30DOPC   C4B  360   1.115   0.366   5.091
   31DOPC   NC3  361  17.817   9.569   7.453
   31DOPC   PO4  362  18.204   9.485   7.348
   31DOPC   GL1  363  18.316   9.224   7.037
   31DOPC   GL2  364  18.031   9.236   6.947
   31DOPC   C1A  365  18.435   9.448   6.679
   31DOPC   D2A  366  18.338   9.690   6.260
   31DOPC   C3A  367  18.265   9.518   5.837
   31DOPC   C4A  368  18.227   9.393   5.366
   31DOPC   C1B  369  17.940   9.497   6.572
   31DOPC   D2B  370  17.843   9.773   6.145
   31DOPC   C3B  371  17.835   9.752   5.666
   31DOPC   C4B  372  17.828   9.641   5.184
   32DOPC   NC3  373  18.019   2.751   7.329
   32DOPC   PO4  374  18.078   2.395   7.146
   32DOPC   GL1  375  17.844   2.499   6.816
   32DOPC   GL2  376  17.972   2.790   6.847
   32DOPC   C1A  377  18.051   2.376   6.436
   32DOPC   D2A  378  18.291   2.237   6.016
   32DOPC   C3A  379  18.140   2.321   5.588
   32DOPC   C4A  380  17.794   2.481   5.287
   32DOPC   C1B  381  18.064   2.898   6.417
   32DOPC   D2B  382  17.962   2.746   5.937
   32DOPC   C3B  383  18.090   2.890   5.497
   32DOPC   C4B  384  18.428   3.133   5.202
   33DOPC   NC3  385  10.447   1.242   7.343
   33DOPC   PO4  386  10.616   1.571   7.197
   33DOPC   GL1  387  10.361   1.621   6.871
   33DOPC   GL2  388  10.199   1.363   6.952
   33DOPC   C1A  389  10.446   1.516   6.445
   33DOPC   D2A  390  10.571   1.473   5.947
   33DOPC   C3A  391  10.566   1.462   5.464
   33DOPC   C4A  392  10.629   1.520   4.964
   33DOPC   C1B  393  10.109   1.124   6.578
   33DOPC   D2B  394  10.205   1.127   6.077
   33DOPC   C3B  395  10.210   1.038   5.605
   33DOPC   C4B  396   9.906   1.065   5.205
   34DOPC   NC3  397  17.834   4.246   7.455
   34DOPC   PO4  398  17.654   4.562   7.272
   34DOPC   GL1  399  17.458   4.330   6.917
   34DOPC   GL2  400  17.706   4.174   6.985
   34DOPC   C1A  401  17.520   4.076   6.539
   34DOPC   D2A  402  17.794   4.035   6.127
   34DOPC   C3A  403  17.616   4.017   5.692
   34DOPC   C4A  404  17.346   4.012   5.275
   34DOPC   C1B  405  17.940   4.334   6.630
   34DOPC   D2B  406  18.143   4.433   6.173
   34DOPC   C3B  407  18.234   4.551   5.715
   34DOPC   C4B  408  18.229   4.735   5.247
   35DOPC   NC3  409   4.521   6.531   7.435
   35DOPC   PO4  410   4.392   6.565   7.061
   35DOPC   GL1  411   4.123   6.232   6.961
   35DOPC   GL2  412   3.896   6.420   6.863
   35DOPC   C1A  413   4.283   6.151   6.562
   35DOPC   D2A  414   4.438   6.072   6.091
   35DOPC   C3A  415   4.400   6.329   5.708
   35DOPC   C4A  416   4.271   6.499   5.259
   35DOPC   C1B  417   4.074   6.617   6.498
   35DOPC   D2B  418   4.442   6.577   6.161
   35DOPC   C3B  419   4.518   6.812   5.758
   35DOPC   C4B  420   4.131   6.938   5.470
   36DOPC   NC3  421   5.293   1.562   7.412
   36DOPC   PO4  422   4.901   1.617   7.356
   36DOPC   GL1  423   5.015   1.666   6.929
   36DOPC   GL2  424   5.177   1.908   6.999
   36DOPC   C1A  425   4.946   1.741   6.480
   36DOPC   D2A  426   4.792   1.876   6.017
   36DOPC   C3A  427   5.125   1.769   5.680
   36DOPC   C4A  428   5.454   1.650   5.323
   36DOPC   C1B  429   5.185   2.181   6.629
   36DOPC   D2B  430   5.161   2.235   6.123
   36DOPC   C3B  431   4.941   2.253   5.695
   36DOPC   C4B  432   4.756   1.966   5.318
   37DOPC   NC3  433   4.310   9.666   7.348
   37DOPC   PO4  434   4.561   9.450   7.116
   37DOPC   GL1  435   4.295   9.471   6.786
   37DOPC   GL2  436   4.191   9.736   6.887
   37DOPC   C1A  437   4.127   9.346   6.399
   37DOPC   D2A  438   4.057   9.069   5.999
   37DOPC   C3A  439   3.982   9.258   5.584
   37DOPC   C4A  440   3.891   9.429   5.135
   37DOPC   C1B  441   4.223   9.844   6.468
   37DOPC   D2B  442   4.218   9.902   5.959
   37DOPC   C3B  443   4.074   9.794   5.520
   37DOPC   C4B  444   4.219   9.816   5.040
   38DOPC   NC3  445   5.234   6.760   7.155
   38DOPC   PO4  446   4.920   6.514   7.157
   38DOPC   GL1  447   4.787   6.649   6.753
   38DOPC   GL2  448   5.069   6.493   6.716
   38DOPC   C1A  449   4.881   6.765   6.333
   38DOPC   D2A  450   5.079   6.884   5.901
   38DOPC   C3A  451   4.970   6.680   5.498
   38DOPC   C4A  452   5.083   6.409   5.103
   38DOPC   C1B  453   5.378   6.657   6.432
   38DOPC   D2B  454   5.641   6.782   6.015
   38DOPC   C3B  455   5.493   6.873   5.578
   38DOPC   C4B  456   5.260   6.959   5.149
   39DOPC   NC3  457   1.852   0.381   7.719
   39DOPC   PO4  458   1.873   0.339   7.323
   39DOPC   GL1  459   1.871   9.940   7.102
   39DOPC   GL2  460   1.560   9.987   7.127
   39DOPC   C1A  461   2.011   0.049   6.685
   39DOPC   D2A  462   1.963   0.263   6.220
   39DOPC   C3A  463   2.078   0.375   5.757
   39DOPC   C4A  464   2.197   0.455   5.265
   39DOPC   C1B  465   1.460   0.122   6.727
   39DOPC   D2B  466   1.480   0.090   6.228
   39DOPC   C3B  467   1.608   0.148   5.777
   39DOPC   C4B  468   1.701   0.293   5.312
   40DOPC   NC3  469   8.915   9.329   7.258
   40DOPC   PO4  470   8.643   9.037   7.163
   40DOPC   GL1  471   8.802   9.162   6.827
   40DOPC   GL2  472   9.094   9.098   6.861
   40DOPC   C1A  473   8.664   9.428   6.499
   40DOPC   D2A  474   8.537   9.578   6.034
   40DOPC   C3A  475   8.757   9.480   5.621
   40DOPC   C4A  476   8.857   9.510   5.132
   40DOPC   C1B  477   9.158   9.337   6.484
   40DOPC   D2B  478   9.190   9.490   5.985
   40DOPC   C3B  479   9.180   9.767   5.582
   40DOPC   C4B  480   9.159   9.963   5.109
   41DOPC   NC3  481   9.075   1.437   7.592
   41DOPC   PO4  482   9.057   1.238   7.253
   41DOPC   GL1  483   9.328   1.364   6.944
   41DOPC   GL2  484   9.226   1.108   6.796
   41DOPC   C1A  485   9.267   1.561   6.558
   41DOPC   D2A  486   9.207   1.665   6.076
   41DOPC   C3A  487   9.076   1.474   5.659
   41DOPC   C4A  488   8.947   1.346   5.187
   41DOPC   C1B  489   8.949   1.192   6.445
   41DOPC   D2B  490   8.717   1.324   6.020
   41DOPC   C3B  491   8.687   1.120   5.597
   41DOPC   C4B  492   8.847   0.857   5.210
   42DOPC   NC3  493  13.853   0.970   7.236
   42DOPC   PO4  494  13.460   0.910   7.170
   42DOPC   GL1  495  13.516   1.122   6.796
   42DOPC   GL2  496  13.295   1.337   6.887
   42DOPC   C1A  497  13.564   1.104   6.339
   42DOPC   D2A  498  13.613   1.030   5.832
   42DOPC   C3A  499  13.555   1.042   5.345
   42DOPC   C4A  500  13.618   0.982   4.842
   42DOPC   C1B  501  13.260   1.512   6.473
   42DOPC   D2B  502  13.394   1.468   5.988
   42DOPC   C3B  503  13.417   1.518   5.516
   42DOPC   C4B  504  13.408   1.444   5.018
   43DOPC   NC3  505  18.946   7.021   7.186
   43DOPC   PO4  506  18.658   6.807   7.335
   43DOPC   GL1  507  18.703   6.648   6.937
   43DOPC   GL2  508  18.992   6.620   6.970
   43DOPC   C1A  509  18.682   6.766   6.510
   43DOPC   D2A  510  18.629   6.677   6.016
   43DOPC   C3A  511  18.528   6.904   5.606
   43DOPC   C4A  512  18.233   6.999   5.215
   43DOPC   C1B  513  19.206   6.712   6.618
   43DOPC   D2B  514  19.163   6.692   6.115
   43DOPC   C3B  515  19.184   6.484   5.683
   43DOPC   C4B  516  19.266   6.261   5.233
   44DOPC   NC3  517  16.772   9.552   7.496
   44DOPC   PO4  518  16.882   9.421   7.132
   44DOPC   GL1  519  16.673   9.345   6.749
   44DOPC   GL2  520  16.669   9.038   6.833
   44DOPC   C1A  521  16.612   9.249   6.318
   44DOPC   D2A  522  16.585   9.064   5.854
   44DOPC   C3A  523  16.632   9.111   5.385
   44DOPC   C4A  524  16.722   9.123   4.887
   44DOPC   C1B  525  16.650   8.746   6.468
   44DOPC   D2B  526  16.636   8.501   6.017
   44DOPC   C3B  527  16.734   8.620   5.567
   44DOPC   C4B  528  16.539   8.688   5.103
   45DOPC   NC3  529   1.616   3.400   7.235
   45DOPC   PO4  530   1.654   3.018   7.148
   45DOPC   GL1  531   1.696   3.163   6.736
   45DOPC   GL2  532   1.803   3.424   6.808
   45DOPC   C1A  533   1.697   3.224   6.283
   45DOPC   D2A  534   1.848   3.241   5.796
   45DOPC   C3A  535   1.886   3.477   5.376
   45DOPC   C4A  536   1.954   3.617   4.893
   45DOPC   C1B  537   2.097   3.462   6.483
   45DOPC   D2B  538   2.301   3.298   6.064
   45DOPC   C3B  539   2.330   3.458   5.624
   45DOPC   C4B  540   2.336   3.751   5.219
   46DOPC   NC3  541  14.550   2.677   7.275
   46DOPC   PO4  542  14.242   2.462   7.126
   46DOPC   GL1  543  14.118   2.469   6.708
   46DOPC   GL2  544  14.174   2.769   6.718
   46DOPC   C1A  545  14.075   2.409   6.267
   46DOPC   D2A  546  14.272   2.475   5.820
   46DOPC   C3A  547  14.389   2.607   5.388
   46DOPC   C4A  548  14.561   2.958   5.097
   46DOPC   C1B  549  13.975   2.906   6.346
   46DOPC   D2B  550  13.970   2.901   5.843
   46DOPC   C3B  551  14.313   3.100   5.560
   46DOPC   C4B  552  14.690   3.383   5.367
   47DOPC   NC3  553  19.857   3.553   7.480
   47DOPC   PO4  554  19.862   3.169   7.353
   47DOPC   GL1  555   0.112   3.009   6.978
   47DOPC   GL2  556  19.969   3.229   6.826
   47DOPC   C1A  557   0.216   2.700   6.635
   47DOPC   D2A  558   0.246   2.412   6.200
   47DOPC   C3A  559   0.105   2.512   5.747
   47DOPC   C4A  560  19.910   2.613   5.291
   47DOPC   C1B  561  19.904   3.054   6.421
   47DOPC   D2B  562  19.793   2.686   6.116
   47DOPC   C3B  563  19.566   2.632   5.714
   47DOPC   C4B  564  19.257   2.671   5.336
   48DOPC   NC3  565   7.512   3.128   7.395
   48DOPC   PO4  566   7.510   3.253   7.006
   48DOPC   GL1  567   7.710   3.348   6.685
   48DOPC   GL2  568   7.998   3.327   6.748
   48DOPC   C1A  569   7.692   3.158   6.290
   48DOPC   D2A  570   7.966   2.905   5.955
   48DOPC   C3A  571   7.992   2.836   5.493
   48DOPC   C4A  572   8.065   2.755   5.008
   48DOPC   C1B  573   8.162   3.014   6.459
   48DOPC   D2B  574   8.314   2.592   6.216
   48DOPC   C3B  575   8.250   2.493   5.767
   48DOPC   C4B  576   8.072   2.337   5.333
   49DOPC   NC3  577   7.948   5.302   7.262
   49DOPC   PO4  578   8.273   5.547   7.231
   49DOPC   GL1  579   8.234   5.601   6.789
   49DOPC   GL2  580   7.907   5.557   6.831
   49DOPC   C1A  581   8.384   5.678   6.356
   49DOPC   D2A  582   8.468   5.694   5.852
   49DOPC   C3A  583   8.485   5.541   5.395
   49DOPC   C4A  584   8.529   5.401   4.908
   49DOPC   C1B  585   7.680   5.547   6.410
   49DOPC   D2B  586   7.649   5.504   5.891
   49DOPC   C3B  587   7.925   5.238   5.586
   49DOPC   C4B  588   8.259   5.022   5.259
   50DOPC   NC3  589  10.575   3.925   7.767
   50DOPC   PO4  590  10.675   3.999   7.377
   50DOPC   GL1  591  10.669   3.801   6.955
   50DOPC   GL2  592  10.582   4.084   6.866
   50DOPC   C1A  593  10.827   3.742   6.539
   50DOPC   D2A  594  10.948   3.692   6.043
   50DOPC   C3A  595  10.674   3.738   5.652
   50DOPC   C4A  596  10.257   3.744   5.356
   50DOPC   C1B  597  10.737   4.272   6.465
   50DOPC   D2B  598  10.785   4.555   6.030
   50DOPC   C3B  599  10.621   4.611   5.576
   50DOPC   C4B  600  10.471   4.647   5.090
   51DOPC   NC3  601   6.079   6.090   7.426
   51DOPC   PO4  602   6.417   5.897   7.315
   51DOPC   GL1  603   6.390   6.022   6.884
   51DOPC   GL2  604   6.116   6.148   6.950
   51DOPC   C1A  605   6.345   5.822   6.485
   51DOPC   D2A  606   6.284   5.580   6.071
   51DOPC   C3A  607   6.264   5.782   5.662
   51DOPC   C4A  608   6.084   5.629   5.236
   51DOPC   C1B  609   5.885   5.971   6.610
   51DOPC   D2B  610   5.829   5.811   6.137
   51DOPC   C3B  611   5.751   5.816   5.670
   51DOPC   C4B  612   5.578   5.775   5.209
   52DOPC   NC3  613   1.015   2.765   7.253
   52DOPC   PO4  614   1.162   3.137   7.256
   52DOPC   GL1  615   1.267   3.048   6.850
   52DOPC   GL2  616   1.354   2.752   6.913
   52DOPC   C1A  617   1.214   3.041   6.400
   52DOPC   D2A  618   1.334   3.144   5.918
   52DOPC   C3A  619   1.167   2.967   5.513
   52DOPC   C4A  620   0.926   2.659   5.211
   52DOPC   C1B  621   1.600   2.761   6.539
   52DOPC   D2B  622   1.753   2.776   6.054
   52DOPC   C3B  623   1.666   2.801   5.590
   52DOPC   C4B  624   1.451   2.599   5.195
   53DOPC   NC3  625  12.033   0.820   7.325
   53DOPC   PO4  626  11.687   0.679   7.171
   53DOPC   GL1  627  11.821   0.872   6.819
   53DOPC   GL2  628  12.120   0.929   6.889
   53DOPC   C1A  629  11.787   1.091   6.428
   53DOPC   D2A  630  11.829   1.387   6.022
   53DOPC   C3A  631  11.728   1.258   5.584
   53DOPC   C4A  632  11.740   0.977   5.176
   53DOPC   C1B  633  12.292   1.163   6.540
   53DOPC   D2B  634  12.372   1.439   6.123
   53DOPC   C3B  635  12.231   1.379   5.673
   53DOPC   C4B  636  12.043   1.431   5.217
   54DOPC   NC3  637  17.952   1.185   7.338
   54DOPC   PO4  638  17.741   0.913   7.133
   54DOPC   GL1  639  17.870   0.942   6.722
   54DOPC   GL2  640  18.050   1.184   6.816
   54DOPC   C1A  641  17.948   0.811   6.281
   54DOPC   D2A  642  18.034   0.737   5.787
   54DOPC   C3A  643  18.010   0.983   5.377
   54DOPC   C4A  644  17.862   0.938   4.898
   54DOPC   C1B  645  18.238   1.184   6.424
   54DOPC   D2B  646  18.393   1.077   5.964
   54DOPC   C3B  647  18.305   1.360   5.600
   54DOPC   C4B  648  18.299   1.519   5.133
   55DOPC   NC3  649   4.822   0.324   7.401
   55DOPC   PO4  650   4.585   0.594   7.233
   55DOPC   GL1  651   4.733   0.434   6.872
   55DOPC   GL2  652   5.043   0.514   6.941
   55DOPC   C1A  653   4.594   0.520   6.460
   55DOPC   D2A  654   4.449   0.580   5.977
   55DOPC   C3A  655   4.509   0.430   5.533
   55DOPC   C4A  656   4.627   0.252   5.080
   55DOPC   C1B  657   5.395   0.503   6.609
   55DOPC   D2B  658   5.802   0.460   6.283
   55DOPC   C3B  659   5.768   0.322   5.824
   55DOPC   C4B  660   5.626   0.059   5.415
   56DOPC   NC3  661  14.827   8.157   6.983
   56DOPC   PO4  662  15.154   8.315   7.140
   56DOPC   GL1  663  15.448   8.136   6.907
   56DOPC   GL2  664  15.251   7.889   6.892
   56DOPC   C1A  665  15.490   8.315   6.503
   56DOPC   D2A  666  15.469   8.500   6.037
   56DOPC   C3A  667  15.419   8.255   5.628
   56DOPC   C4A  668  15.454   7.873   5.292
   56DOPC   C1B  669  15.069   8.016   6.494
   56DOPC   D2B  670  15.062   8.150   6.007
   56DOPC   C3B  671  15.031   7.956   5.573
   56DOPC   C4B  672  14.999   8.014   5.088
   57DOPC   NC3  673  17.286   2.207   7.330
   57DOPC   PO4  674  17.604   2.150   7.100
   57DOPC   GL1  675  17.292   2.293   6.821
   57DOPC   GL2  676  17.127   2.023   6.891
   57DOPC   C1A  677  17.400   2.238   6.385
   57DOPC   D2A  678  17.706   2.259   5.973
   57DOPC   C3A  679  17.570   2.100   5.545
   57DOPC   C4A  680  17.591   2.058   5.050
   57DOPC   C1B  681  17.018   1.775   6.511
   57DOPC   D2B  682  16.919   1.561   6.048
   57DOPC   C3B  683  17.144   1.806   5.705
   57DOPC   C4B  684  17.083   2.019   5.258
   58DOPC   NC3  685  18.917   3.721   7.374
   58DOPC   PO4  686  19.176   3.951   7.170
   58DOPC   GL1  687  19.421   3.791   6.838
   58DOPC   GL2  688  19.179   3.597   6.788
   58DOPC   C1A  689  19.501   3.770   6.410
   58DOPC   D2A  690  19.462   3.609   5.948
   58DOPC   C3A  691  19.280   3.691   5.524
   58DOPC   C4A  692  19.110   3.750   5.060
   58DOPC   C1B  693  19.101   3.465   6.346
   58DOPC   D2B  694  18.996   3.360   5.849
   58DOPC   C3B  695  18.813   3.471   5.412
   58DOPC   C4B  696  18.848   3.332   4.935
   59DOPC   NC3  697  18.628   6.057   7.543
   59DOPC   PO4  698  18.774   6.281   7.238
   59DOPC   GL1  699  18.906   6.220   6.830
   59DOPC   GL2  700  18.795   5.963   6.753
   59DOPC   C1A  701  18.957   6.331   6.415
   59DOPC   D2A  702  18.821   6.196   5.959
   59DOPC   C3A  703  18.866   6.082   5.511
   59DOPC   C4A  704  18.884   5.970   5.031
   59DOPC   C1B  705  18.973   5.826   6.329
   59DOPC   D2B  706  19.149   5.716   5.850
   59DOPC   C3B  707  19.218   5.732   5.368
   59DOPC   C4B  708  19.339   5.761   4.884
   60DOPC   NC3  709  15.186   2.081   7.436
   60DOPC   PO4  710  15.251   1.764   7.206
   60DOPC   GL1  711  15.316   2.002   6.870
   60DOPC   GL2  712  15.090   2.191   6.987
   60DOPC   C1A  713  15.298   2.019   6.436
   60DOPC   D2A  714  15.233   2.155   5.967
   60DOPC   C3A  715  15.273   2.066   5.517
   60DOPC   C4A  716  15.391   1.874   5.092
   60DOPC   C1B  717  14.857   1.978   6.694
   60DOPC   D2B  718  14.799   1.804   6.243
   60DOPC   C3B  719  14.841   1.876   5.787
   60DOPC   C4B  720  14.884   1.751   5.316
   61DOPC   NC3  721   8.242   3.638   7.390
   61DOPC   PO4  722   8.192   4.010   7.242
   61DOPC   GL1  723   8.168   3.971   6.794
   61DOPC   GL2  724   8.312   3.701   6.857
   61DOPC   C1A  725   8.315   3.936   6.361
   61DOPC   D2A  726   8.663   3.929   5.979
   61DOPC   C3A  727   8.731   4.094   5.540
   61DOPC   C4A  728   8.665   4.483   5.221
   61DOPC   C1B  729   8.722   3.787   6.653
   61DOPC   D2B  730   9.070   3.975   6.323
   61DOPC   C3B  731   9.154   3.995   5.847
   61DOPC   C4B  732   9.241   4.038   5.356
   62DOPC   NC3  733  15.530   7.229   7.403
   62DOPC   PO4  734  15.323   7.508   7.193
   62DOPC   GL1  735  15.124   7.314   6.919
   62DOPC   GL2  736  14.846   7.423   6.997
   62DOPC   C1A  737  15.156   7.515   6.541
   62DOPC   D2A  738  15.181   7.662   6.081
   62DOPC   C3A  739  15.312   7.529   5.664
   62DOPC   C4A  740  15.097   7.464   5.233
   62DOPC   C1B  741  14.684   7.662   6.636
   62DOPC   D2B  742  14.671   7.833   6.158
   62DOPC   C3B  743  14.774   7.574   5.773
   62DOPC   C4B  744  14.649   7.256   5.410
   63DOPC   NC3  745   4.128   7.311   7.075
   63DOPC   PO4  746   4.141   6.972   7.280
   63DOPC   GL1  747   3.962   6.876   6.895
   63DOPC   GL2  748   3.712   7.053   6.930
   63DOPC   C1A  749   3.982   7.156   6.538
   63DOPC   D2A  750   3.891   7.392   6.087
   63DOPC   C3A  751   3.832   7.333   5.619
   63DOPC   C4A  752   3.792   7.206   5.144
   63DOPC   C1B  753   3.480   7.259   6.570
   63DOPC   D2B  754   3.351   7.463   6.120
   63DOPC   C3B  755   3.414   7.600   5.669
   63DOPC   C4B  756   3.597   7.696   5.210
   64DOPC   NC3  757  11.254   8.481   7.475
   64DOPC   PO4  758  10.895   8.391   7.321
   64DOPC   GL1  759  11.046   8.259   6.938
   64DOPC   GL2  760  11.284   8.467   6.989
   64DOPC   C1A  761  10.945   8.283   6.486
   64DOPC   D2A  762  10.943   8.177   5.979
   64DOPC   C3A  763  11.099   8.250   5.514
   64DOPC   C4A  764  11.229   8.446   5.054
   64DOPC   C1B  765  11.429   8.248   6.634
   64DOPC   D2B  766  11.453   8.021   6.164
   64DOPC   C3B  767  11.284   7.823   5.756
   64DOPC   C4B  768  11.131   7.626   5.315
   65DOPC   NC3  769   1.603   1.578   7.490
   65DOPC   PO4  770   1.636   1.810   7.164
   65DOPC   GL1  771   1.417   1.749   6.796
   65DOPC   GL2  772   1.458   1.451   6.810
   65DOPC   C1A  773   1.562   1.852   6.391
   65DOPC   D2A  774   1.796   1.911   5.958
   65DOPC   C3A  775   1.792   1.642   5.569
   65DOPC   C4A  776   1.808   1.333   5.172
   65DOPC   C1B  777   1.720   1.383   6.445
   65DOPC   D2B  778   1.982   1.429   6.011
   65DOPC   C3B  779   1.780   1.142   5.680
   65DOPC   C4B  780   1.503   0.892   5.336
   66DOPC   NC3  781   7.843   3.649   7.064
   66DOPC   PO4  782   7.736   4.023   6.977
   66DOPC   GL1  783   7.713   4.000   6.548
   66DOPC   GL2  784   7.888   3.732   6.575
   66DOPC   C1A  785   7.786   3.941   6.117
   66DOPC   D2A  786   8.187   3.834   5.822
   66DOPC   C3A  787   8.321   3.703   5.389
   66DOPC   C4A  788   8.320   3.583   4.900
   66DOPC   C1B  789   8.057   3.504   6.210
   66DOPC   D2B  790   8.154   3.326   5.732
   66DOPC   C3B  791   8.137   3.250   5.252
   66DOPC   C4B  792   8.009   3.186   4.764
   67DOPC   NC3  793   0.192   7.840   6.927
   67DOPC   PO4  794  19.897   7.716   7.173
   67DOPC   GL1  795  19.725   7.819   6.836
   67DOPC   GL2  796  19.500   7.976   6.847
   67DOPC   C1A  797  19.925   7.757   6.439
   67DOPC   D2A  798  19.912   7.522   5.987
   67DOPC   C3A  799  19.912   7.734   5.573
   67DOPC   C4A  800  19.805   8.022   5.178
   67DOPC   C1B  801  19.457   7.974   6.413
   67DOPC   D2B  802  19.714   7.997   5.978
   67DOPC   C3B  803  19.494   8.048   5.568
   67DOPC   C4B  804  19.232   7.987   5.159
   68DOPC   NC3  805   0.456   6.523   7.468
   68DOPC   PO4  806   0.092   6.401   7.333
   68DOPC   GL1  807   0.012   6.725   7.040
   68DOPC   GL2  808   0.304   6.789   7.094
   68DOPC   C1A  809   0.012   6.762   6.597
   68DOPC   D2A  810   0.167   6.585   6.159
   68DOPC   C3A  811   0.155   6.596   5.688
   68DOPC   C4A  812   0.386   6.539   5.254
   68DOPC   C1B  813   0.490   6.642   6.715
   68DOPC   D2B  814   0.685   6.632   6.240
   68DOPC   C3B  815   0.704   6.553   5.769
   68DOPC   C4B  816   0.850   6.363   5.339
   69DOPC   NC3  817  15.001   6.205   7.134
   69DOPC   PO4  818  14.609   6.311   7.105
   69DOPC   GL1  819  14.582   6.188   6.657
   69DOPC   GL2  820  14.769   5.969   6.770
   69DOPC   C1A  821  14.627   6.175   6.197
   69DOPC   D2A  822  14.679   6.092   5.705
   69DOPC   C3A  823  14.664   5.904   5.272
   69DOPC   C4A  824  14.631   5.870   4.768
   69DOPC   C1B  825  15.015   5.929   6.404
   69DOPC   D2B  826  15.124   6.128   5.949
   69DOPC   C3B  827  15.132   5.886   5.538
   69DOPC   C4B  828  15.101   5.630   5.105
   70DOPC   NC3  829   2.098   2.934   7.331
   70DOPC   PO4  830   2.243   2.597   7.193
   70DOPC   GL1  831   2.004   2.836   6.880
   70DOPC   GL2  832   1.801   2.624   6.942
   70DOPC   C1A  833   2.076   2.907   6.440
   70DOPC   D2A  834   2.257   2.809   5.970
   70DOPC   C3A  835   2.200   2.965   5.523
   70DOPC   C4A  836   2.252   3.246   5.114
   70DOPC   C1B  837   1.972   2.424   6.598
   70DOPC   D2B  838   2.051   2.345   6.111
   70DOPC   C3B  839   2.082   2.450   5.654
   70DOPC   C4B  840   1.978   2.583   5.198
   71DOPC   NC3  841  12.770   9.413   7.235
   71DOPC   PO4  842  12.711   9.773   7.428
   71DOPC   GL1  843  12.750   9.997   6.991
   71DOPC   GL2  844  12.683   9.727   6.928
   71DOPC   C1A  845  12.641   0.023   6.559
   71DOPC   D2A  846  12.495   9.965   6.073
   71DOPC   C3A  847  12.602   0.033   5.608
   71DOPC   C4A  848  12.712   9.850   5.162
   71DOPC   C1B  849  12.525   9.489   6.592
   71DOPC   D2B  850  12.642   9.250   6.157
   71DOPC   C3B  851  12.619   9.315   5.690
   71DOPC   C4B  852  12.669   9.317   5.187
   72DOPC   NC3  853  16.662   3.419   7.723
   72DOPC   PO4  854  16.800   3.395   7.347
   72DOPC   GL1  855  16.673   3.617   7.007
   72DOPC   GL2  856  16.797   3.888   7.071
   72DOPC   C1A  857  16.749   3.601   6.573
   72DOPC   D2A  858  16.883   3.565   6.085
   72DOPC   C3A  859  16.751   3.421   5.654
   72DOPC   C4A  860  16.707   3.203   5.207
   72DOPC   C1B  861  16.654   4.095   6.671
   72DOPC   D2B  862  16.498   3.920   6.202
   72DOPC   C3B  863  16.379   3.842   5.726
   72DOPC   C4B  864  16.132   3.859   5.277
   73DOPC   NC3  865   4.077   6.060   7.406
   73DOPC   PO4  866   3.993   5.789   7.126
   73DOPC   GL1  867   4.207   5.684   6.783
   73DOPC   GL2  868   4.472   5.703   6.932
   73DOPC   C1A  869   4.172   5.729   6.332
   73DOPC   D2A  870   4.037   5.829   5.853
   73DOPC   C3A  871   4.177   5.990   5.425
   73DOPC   C4A  872   4.285   6.084   4.944
   73DOPC   C1B  873   4.671   5.781   6.549
   73DOPC   D2B  874   4.868   5.813   6.087
   73DOPC   C3B  875   4.659   5.880   5.670
   73DOPC   C4B  876   4.659   6.172   5.273
   74DOPC   NC3  877   5.227   7.314   7.418
   74DOPC   PO4  878   5.464   7.545   7.187
   74DOPC   GL1  879   5.432   7.327   6.801
   74DOPC   GL2  880   5.184   7.181   6.925
   74DOPC   C1A  881   5.299   7.508   6.403
   74DOPC   D2A  882   5.038   7.648   5.991
   74DOPC   C3A  883   5.088   7.639   5.519
   74DOPC   C4A  884   5.194   7.456   5.076
   74DOPC   C1B  885   4.912   7.212   6.556
   74DOPC   D2B  886   4.723   7.224   6.078
   74DOPC   C3B  887   4.800   7.209   5.599
   74DOPC   C4B  888   4.736   7.009   5.141
   75DOPC   NC3  889   2.824   6.585   7.492
   75DOPC   PO4  890   2.489   6.374   7.560
   75DOPC   GL1  891   2.366   6.316   7.083
   75DOPC   GL2  892   2.597   6.517   7.081
   75DOPC   C1A  893   2.457   6.351   6.622
   75DOPC   D2A  894   2.691   6.383   6.158
   75DOPC   C3A  895   2.705   6.368   5.677
   75DOPC   C4A  896   2.705   6.392   5.177
   75DOPC   C1B  897   2.874   6.620   6.744
   75DOPC   D2B  898   3.159   6.567   6.336
   75DOPC   C3B  899   3.129   6.645   5.865
   75DOPC   C4B  900   3.104   6.637   5.366
   76DOPC   NC3  901   8.152   1.048   7.392
   76DOPC   PO4  902   8.059   1.428   7.294
   76DOPC   GL1  903   7.860   1.412   6.931
   76DOPC   GL2  904   7.812   1.101   6.964
   76DOPC   C1A  905   8.150   1.480   6.576
   76DOPC   D2A  906   8.338   1.645   6.148
   76DOPC   C3A  907   8.289   1.479   5.717
   76DOPC   C4A  908   8.310   1.253   5.269
   76DOPC   C1B  909   7.994   1.003   6.580
   76DOPC   D2B  910   8.197   1.142   6.138
   76DOPC   C3B  911   8.140   0.980   5.699
   76DOPC   C4B  912   8.348   0.737   5.324
   77DOPC   NC3  913   2.021   6.417   7.421
   77DOPC   PO4  914   1.875   6.229   7.106
   77DOPC   GL1  915   1.681   6.485   6.851
   77DOPC   GL2  916   1.822   6.738   6.966
   77DOPC   C1A  917   1.735   6.362   6.424
   77DOPC   D2A  918   1.801   6.132   5.989
   77DOPC   C3A  919   1.807   6.321   5.566
   77DOPC   C4A  920   1.808   6.538   5.123
   77DOPC   C1B  921   2.080   6.687   6.613
   77DOPC   D2B  922   2.186   6.513   6.138
   77DOPC   C3B  923   2.217   6.632   5.671
   77DOPC   C4B  924   2.284   6.767   5.186
   78DOPC   NC3  925   7.976   6.352   7.198
   78DOPC   PO4  926   8.330   6.501   7.325
   78DOPC   GL1  927   8.304   6.575   6.927
   78DOPC   GL2  928   8.043   6.756   6.935
   78DOPC   C1A  929   8.104   6.407   6.596
   78DOPC   D2A  930   7.944   6.358   6.134
   78DOPC   C3A  931   7.860   6.389   5.668
   78DOPC   C4A  932   7.618   6.393   5.229
   78DOPC   C1B  933   8.036   6.885   6.486
   78DOPC   D2B  934   8.136   7.085   6.033
   78DOPC   C3B  935   8.051   6.883   5.607
   78DOPC   C4B  936   8.086   6.639   5.182
   79DOPC   NC3  937  10.931   9.140   6.793
   79DOPC   PO4  938  11.074   9.381   7.077
   79DOPC   GL1  939  10.950   9.635   6.762
   79DOPC   GL2  940  10.673   9.624   6.890
   79DOPC   C1A  941  10.825   9.483   6.348
   79DOPC   D2A  942  10.588   9.466   5.896
   79DOPC   C3A  943  10.654   9.835   5.592
   79DOPC   C4A  944  10.982   0.068   5.285
   79DOPC   C1B  945  10.375   9.439   6.592
   79DOPC   D2B  946  10.108   9.433   6.159
   79DOPC   C3B  947  10.178   9.830   5.912
   79DOPC   C4B  948  10.193   0.116   5.514
   80DOPC   NC3  949   3.887   0.699   7.143
   80DOPC   PO4  950   3.998   1.067   7.259
   80DOPC   GL1  951   4.023   1.279   6.832
   80DOPC   GL2  952   4.146   0.991   6.795
   80DOPC   C1A  953   4.147   1.454   6.416
   80DOPC   D2A  954   4.276   1.573   5.933
   80DOPC   C3A  955   4.226   1.335   5.523
   80DOPC   C4A  956   4.048   1.125   5.103
   80DOPC   C1B  957   4.326   0.966   6.377
   80DOPC   D2B  958   4.443   1.070   5.905
   80DOPC   C3B  959   4.625   0.999   5.480
   80DOPC   C4B  960   4.776   1.007   5.010
   81DOPC   NC3  961   9.422   5.877   7.217
   81DOPC   PO4  962   9.778   5.819   7.395
   81DOPC   GL1  963   9.797   5.685   7.026
   81DOPC   GL2  964   9.783   5.401   7.053
   81DOPC   C1A  965   9.657   5.821   6.618
   81DOPC   D2A  966   9.611   5.806   6.100
   81DOPC   C3A  967   9.643   5.614   5.652
   81DOPC   C4A  968   9.830   5.355   5.253
   81DOPC   C1B  969   9.823   5.337   6.611
   81DOPC   D2B  970   9.811   5.329   6.102
   81DOPC   C3B  971   9.882   5.111   5.691
   81DOPC   C4B  972   9.905   4.841   5.260
   82DOPC   NC3  973  12.734   1.810   7.480
   82DOPC   PO4  974  12.900   1.473   7.333
   82DOPC   GL1  975  12.703   1.669   6.989
   82DOPC   GL2  976  12.969   1.659   6.847
   82DOPC   C1A  977  12.418   1.735   6.638
   82DOPC   D2A  978  12.430   1.955   6.181
   82DOPC   C3A  979  12.536   1.814   5.737
   82DOPC   C4A  980  12.540   1.592   5.283
   82DOPC   C1B  981  12.877   1.905   6.484
   82DOPC   D2B  982  12.886   2.113   6.020
   82DOPC   C3B  983  12.951   2.116   5.556
   82DOPC   C4B  984  13.072   2.147   5.075
   83DOPC   NC3  985   6.380   3.122   7.689
   83DOPC   PO4  986   6.354   2.858   7.392
   83DOPC   GL1  987   6.494   3.003   7.034
   83DOPC   GL2  988   6.762   2.884   7.009
   83DOPC   C1A  989   6.318   2.889   6.641
   83DOPC   D2A  990   6.298   2.665   6.175
   83DOPC   C3A  991   6.253   2.833   5.728
   83DOPC   C4A  992   6.419   2.976   5.279
   83DOPC   C1B  993   6.844   2.803   6.562
   83DOPC   D2B  994   6.892   2.802   6.053
   83DOPC   C3B  995   6.780   2.779   5.593
   83DOPC   C4B  996   6.761   2.640   5.117
   84DOPC   NC3  997   7.133   8.962   7.519
   84DOPC   PO4  998   7.126   9.030   7.128
   84DOPC   GL1  999   7.130   8.762   6.770
   84DOPC   GL2 1000   7.420   8.730   6.842
   84DOPC   C1A 1001   7.087   8.881   6.340
   84DOPC   D2A 1002   7.084   8.971   5.844
   84DOPC   C3A 1003   7.170   9.018   5.379
   84DOPC   C4A 1004   7.252   9.108   4.892
   84DOPC   C1B 1005   7.712   8.687   6.520
   84DOPC   D2B 1006   7.517   8.743   6.074
   84DOPC   C3B 1007   7.446   8.648   5.631
   84DOPC   C4B 1008   7.662   8.761   5.207
   85DOPC   NC3 1009   1.959   5.447   7.360
   85DOPC   PO4 1010   2.315   5.411   7.182
   85DOPC   GL1 1011   2.131   5.486   6.789
   85DOPC   GL2 1012   1.880   5.324   6.861
   85DOPC   C1A 1013   2.113   5.522   6.331
   85DOPC   D2A 1014   2.045   5.267   5.914
   85DOPC   C3A 1015   2.261   5.133   5.523
   85DOPC   C4A 1016   2.367   5.429   5.156
   85DOPC   C1B 1017   1.744   5.190   6.430
   85DOPC   D2B 1018   1.545   5.146   5.941
   85DOPC   C3B 1019   1.719   5.157   5.483
   85DOPC   C4B 1020   1.851   5.052   5.002
   86DOPC   NC3 1021  13.705   4.882   7.766
   86DOPC   PO4 1022  13.791   5.139   7.467
   86DOPC   GL1 1023  13.790   5.222   7.013
   86DOPC   GL2 1024  14.104   5.202   7.063
   86DOPC   C1A 1025  13.849   5.081   6.581
   86DOPC   D2A 1026  14.004   5.001   6.091
   86DOPC   C3A 1027  14.079   5.028   5.614
   86DOPC   C4A 1028  14.101   5.074   5.117
   86DOPC   C1B 1029  14.358   5.269   6.689
   86DOPC   D2B 1030  14.673   5.263   6.287
   86DOPC   C3B 1031  14.559   5.137   5.845
   86DOPC   C4B 1032  14.557   5.094   5.354
   87DOPC   NC3 1033  15.655   6.713   7.414
   87DOPC   PO4 1034  15.342   6.588   7.195
   87DOPC   GL1 1035  15.382   6.949   6.985
   87DOPC   GL2 1036  15.696   6.955   7.012
   87DOPC   C1A 1037  15.231   6.829   6.577
   87DOPC   D2A 1038  15.155   6.679   6.091
   87DOPC   C3A 1039  15.332   6.606   5.646
   87DOPC   C4A 1040  15.442   6.654   5.157
   87DOPC   C1B 1041  16.000   6.928   6.657
   87DOPC   D2B 1042  16.283   6.727   6.262
   87DOPC   C3B 1043  16.230   6.588   5.797
   87DOPC   C4B 1044  16.146   6.391   5.338
   88DOPC   NC3 1045  13.203   6.657   7.344
   88DOPC   PO4 1046  13.556   6.473   7.269
   88DOPC   GL1 1047  13.640   6.643   6.909
   88DOPC   GL2 1048  13.314   6.629   6.861
   88DOPC   C1A 1049  13.886   6.729   6.537
   88DOPC   D2A 1050  14.040   6.866   6.059
   88DOPC   C3A 1051  13.854   6.689   5.675
   88DOPC   C4A 1052  13.555   6.544   5.308
   88DOPC   C1B 1053  13.335   6.564   6.417
   88DOPC   D2B 1054  13.408   6.547   5.925
   88DOPC   C3B 1055  13.144   6.434   5.565
   88DOPC   C4B 1056  13.083   6.158   5.169
   89DOPC   NC3 1057  14.107   3.861   7.368
   89DOPC   PO4 1058  13.773   3.676   7.219
   89DOPC   GL1 1059  13.796   3.714   6.798
   89DOPC   GL2 1060  14.022   3.933   6.866
   89DOPC   C1A 1061  13.737   3.909   6.427
   89DOPC   D2A 1062  13.687   4.188   6.039
   89DOPC   C3A 1063  13.917   4.179   5.650
   89DOPC   C4A 1064  14.174   4.190   5.237
   89DOPC   C1B 1065  14.136   4.213   6.516
   89DOPC   D2B 1066  14.135   4.478   6.081
   89DOPC   C3B 1067  14.298   4.535   5.639
   89DOPC   C4B 1068  14.409   4.638   5.168
   90DOPC   NC3 1069  15.545   3.526   7.402
   90DOPC   PO4 1070  15.784   3.207   7.326
   90DOPC   GL1 1071  15.746   3.318   6.901
   90DOPC   GL2 1072  15.703   3.620   6.968
   90DOPC   C1A 1073  15.932   3.452   6.510
   90DOPC   D2A 1074  16.001   3.760   6.113
   90DOPC   C3A 1075  15.886   3.612   5.675
   90DOPC   C4A 1076  15.767   3.325   5.277
   90DOPC   C1B 1077  15.676   3.895   6.601
   90DOPC   D2B 1078  15.574   4.084   6.143
   90DOPC   C3B 1079  15.518   3.967   5.684
   90DOPC   C4B 1080  15.475   3.760   5.230
   91DOPC   NC3 1081   6.777   6.317   7.399
   91DOPC   PO4 1082   6.440   6.391   7.192
   91DOPC   GL1 1083   6.754   6.299   6.921
   91DOPC   GL2 1084   6.798   6.015   7.052
   91DOPC   C1A 1085   6.726   6.144   6.520
   91DOPC   D2A 1086   6.693   5.963   6.062
   91DOPC   C3A 1087   6.711   6.036   5.597
   91DOPC   C4A 1088   6.386   6.061   5.217
   91DOPC   C1B 1089   6.751   5.680   6.739
   91DOPC   D2B 1090   6.750   5.490   6.269
   91DOPC   C3B 1091   6.713   5.527   5.791
   91DOPC   C4B 1092   6.618   5.596   5.314
   92DOPC   NC3 1093   9.737   0.712   7.369
   92DOPC   PO4 1094   9.532   0.929   7.105
   92DOPC   GL1 1095   9.768   0.844   6.760
   92DOPC   GL2 1096   9.942   0.660   6.932
   92DOPC   C1A 1097   9.703   0.720   6.335
   92DOPC   D2A 1098   9.475   0.622   5.899
   92DOPC   C3A 1099   9.599   0.657   5.438
   92DOPC   C4A 1100   9.683   0.635   4.946
   92DOPC   C1B 1101   9.924   0.353   6.615
   92DOPC   D2B 1102   9.873   0.206   6.134
   92DOPC   C3B 1103   9.735   0.217   5.686
   92DOPC   C4B 1104   9.636   0.184   5.200
   93DOPC   NC3 1105  11.221   0.887   7.279
   93DOPC   PO4 1106  10.864   1.042   7.151
   93DOPC   GL1 1107  10.603   1.197   6.821
   93DOPC   GL2 1108  10.791   1.441   6.785
   93DOPC   C1A 1109  10.579   0.986   6.416
   93DOPC   D2A 1110  10.576   0.784   5.940
   93DOPC   C3A 1111  10.764   0.973   5.544
   93DOPC   C4A 1112  11.003   1.277   5.213
   93DOPC   C1B 1113  10.953   1.530   6.372
   93DOPC   D2B 1114  11.046   1.719   5.918
   93DOPC   C3B 1115  11.278   1.569   5.536
   93DOPC   C4B 1116  11.529   1.452   5.122
   94DOPC   NC3 1117  12.856   4.058   7.296
   94DOPC   PO4 1118  13.153   4.221   7.103
   94DOPC   GL1 1119  12.953   3.894   6.839
   94DOPC   GL2 1120  12.706   4.073   6.852
   94DOPC   C1A 1121  12.843   3.821   6.407
   94DOPC   D2A 1122  12.665   3.714   5.956
   94DOPC   C3A 1123  12.834   3.956   5.587
   94DOPC   C4A 1124  12.996   4.279   5.243
   94DOPC   C1B 1125  12.752   4.323   6.473
   94DOPC   D2B 1126  12.717   4.569   6.028
   94DOPC   C3B 1127  12.627   4.453   5.578
   94DOPC   C4B 1128  12.497   4.372   5.100
   95DOPC   NC3 1129  19.663   4.044   7.163
   95DOPC   PO4 1130   0.037   3.923   7.172
   95DOPC   GL1 1131  19.901   3.680   6.894
   95DOPC   GL2 1132  19.699   3.515   7.036
   95DOPC   C1A 1133  19.965   3.562   6.479
   95DOPC   D2A 1134  19.971   3.482   5.985
   95DOPC   C3A 1135  19.792   3.562   5.553
   95DOPC   C4A 1136  19.608   3.657   5.105
   95DOPC   C1B 1137  19.534   3.320   6.653
   95DOPC   D2B 1138  19.457   3.119   6.176
   95DOPC   C3B 1139  19.439   3.149   5.696
   95DOPC   C4B 1140  19.259   3.259   5.247
   96DOPC   NC3 1141  15.016   0.951   7.248
   96DOPC   PO4 1142  15.317   0.908   6.996
   96DOPC   GL1 1143  14.952   1.114   6.809
   96DOPC   GL2 1144  15.061   1.363   6.979
   96DOPC   C1A 1145  14.843   1.260   6.389
   96DOPC   D2A 1146  14.809   1.384   5.900
   96DOPC   C3A 1147  14.875   1.206   5.469
   96DOPC   C4A 1148  15.126   0.877   5.192
   96DOPC   C1B 1149  15.196   1.555   6.590
   96DOPC   D2B 1150  15.264   1.648   6.089
   96DOPC   C3B 1151  15.262   1.555   5.625
   96DOPC   C4B 1152  15.261   1.388   5.154
   97DOPC   NC3 1153   8.801   7.876   7.347
   97DOPC   PO4 1154   9.186   7.794   7.374
   97DOPC   GL1 1155   9.245   8.054   7.045
   97DOPC   GL2 1156   8.991   8.224   7.089
   97DOPC   C1A 1157   9.293   7.926   6.622
   97DOPC   D2A 1158   9.356   7.733   6.152
   97DOPC   C3A 1159   9.288   7.896   5.712
   97DOPC   C4A 1160   9.252   8.197   5.315
   97DOPC   C1B 1161   8.740   8.244   6.708
   97DOPC   D2B 1162   8.447   8.211   6.280
   97DOPC   C3B 1163   8.586   8.062   5.841
   97DOPC   C4B 1164   8.762   7.998   5.374
   98DOPC   NC3 1165  11.356   9.731   7.322
   98DOPC   PO4 1166  11.024   9.906   7.180
   98DOPC   GL1 1167  11.300   9.932   6.872
   98DOPC   GL2 1168  11.392   9.653   6.859
   98DOPC   C1A 1169  11.143   9.931   6.473
   98DOPC   D2A 1170  10.914   9.891   6.036
   98DOPC   C3A 1171  11.161   9.781   5.664
   98DOPC   C4A 1172  11.396   9.706   5.243
   98DOPC   C1B 1173  11.322   9.461   6.454
   98DOPC   D2B 1174  11.208   9.121   6.098
   98DOPC   C3B 1175  11.048   9.274   5.672
   98DOPC   C4B 1176  10.899   9.514   5.260
   99DOPC   NC3 1177   3.278   5.971   7.110
   99DOPC   PO4 1178   3.638   6.143   7.169
   99DOPC   GL1 1179   3.634   5.949   6.812
   99DOPC   GL2 1180   3.877   5.966   6.686
   99DOPC   C1A 1181   3.280   6.003   6.527
   99DOPC   D2A 1182   3.169   6.137   6.043
   99DOPC   C3A 1183   3.421   6.221   5.635
   99DOPC   C4A 1184   3.719   6.178   5.220
   99DOPC   C1B 1185   3.704   5.866   6.281
   99DOPC   D2B 1186   3.478   5.748   5.861
   99DOPC   C3B 1187   3.496   5.743   5.394
   99DOPC   C4B 1188   3.510   5.647   4.904
  100DOPC   NC3 1189   7.461   5.553   7.345
  100DOPC   PO4 1190   7.638   5.847   7.136
  100DOPC   GL1 1191   7.543   6.264   6.990
  100DOPC   GL2 1192   7.261   6.231   7.125
  100DOPC   C1A 1193   7.559   6.260   6.529
  100DOPC   D2A 1194   7.517   6.070   6.057
  100DOPC   C3A 1195   7.555   5.979   5.590
  100DOPC   C4A 1196   7.780   5.907   5.153
  100DOPC   C1B 1197   7.150   6.006   6.764
  100DOPC   D2B 1198   7.138   5.815   6.316
  100DOPC   C3B 1199   7.131   5.821   5.849
  100DOPC   C4B 1200   7.107   5.764   5.359
  101DOPC   NC3 1201  12.714   1.025   7.479
  101DOPC   PO4 1202  12.451   1.139   7.204
  101DOPC   GL1 1203  12.752   1.232   6.939
  101DOPC   GL2 1204  12.975   1.058   7.058
  101DOPC   C1A 1205  12.769   1.384   6.518
  101DOPC   D2A 1206  12.894   1.599   6.082
  101DOPC   C3A 1207  12.743   1.335   5.738
  101DOPC   C4A 1208  12.556   0.934   5.530
  101DOPC   C1B 1209  13.098   1.006   6.626
  101DOPC   D2B 1210  13.081   1.074   6.127
  101DOPC   C3B 1211  13.119   0.999   5.659
  101DOPC   C4B 1212  12.957   1.249   5.262
  102DOPC   NC3 1213   6.475   5.114   7.567
  102DOPC   PO4 1214   6.785   5.158   7.303
  102DOPC   GL1 1215   6.816   4.998   6.892
  102DOPC   GL2 1216   6.564   5.183   6.801
  102DOPC   C1A 1217   6.889   5.034   6.454
  102DOPC   D2A 1218   6.836   5.066   5.953
  102DOPC   C3A 1219   6.864   4.994   5.473
  102DOPC   C4A 1220   6.900   4.780   5.015
  102DOPC   C1B 1221   6.395   5.142   6.361
  102DOPC   D2B 1222   6.332   5.105   5.841
  102DOPC   C3B 1223   6.351   5.142   5.350
  102DOPC   C4B 1224   6.226   5.226   4.860
  103DOPC   NC3 1225  10.782   9.096   7.381
  103DOPC   PO4 1226  11.065   8.868   7.207
  103DOPC   GL1 1227  10.910   8.666   6.833
  103DOPC   GL2 1228  10.656   8.693   7.013
  103DOPC   C1A 1229  10.831   8.795   6.396
  103DOPC   D2A 1230  10.786   8.903   5.894
  103DOPC   C3A 1231  10.643   8.940   5.431
  103DOPC   C4A 1232  10.487   8.886   4.955
  103DOPC   C1B 1233  10.434   8.934   6.723
  103DOPC   D2B 1234  10.409   9.034   6.234
  103DOPC   C3B 1235  10.287   9.030   5.782
  103DOPC   C4B 1236  10.157   9.097   5.300
  104DOPC   NC3 1237  10.776   7.913   7.233
  104DOPC   PO4 1238  10.399   7.861   7.115
  104DOPC   GL1 1239  10.642   7.970   6.766
  104DOPC   GL2 1240  10.614   8.248   6.934
  104DOPC   C1A 1241  10.523   8.008   6.328
  104DOPC   D2A 1242  10.299   8.050   5.880
  104DOPC   C3A 1243  10.156   7.794   5.501
  104DOPC   C4A 1244  10.031   7.538   5.088
  104DOPC   C1B 1245  10.479   8.451   6.594
  104DOPC   D2B 1246  10.530   8.503   6.103
  104DOPC   C3B 1247  10.635   8.463   5.652
  104DOPC   C4B 1248  10.722   8.464   5.164
  105DOPC   NC3 1249   7.857   0.396   7.504
  105DOPC   PO4 1250   7.825   0.693   7.227
  105DOPC   GL1 1251   7.723   0.590   6.812
  105DOPC   GL2 1252   7.667   0.301   6.852
  105DOPC   C1A 1253   7.812   0.575   6.374
  105DOPC   D2A 1254   7.940   0.526   5.892
  105DOPC   C3A 1255   7.866   0.565   5.430
  105DOPC   C4A 1256   7.734   0.565   4.963
  105DOPC   C1B 1257   7.763   0.072   6.457
  105DOPC   D2B 1258   8.021   0.014   6.013
  105DOPC   C3B 1259   8.112   0.109   5.549
  105DOPC   C4B 1260   8.183   0.300   5.087
  106DOPC   NC3 1261   9.682   3.033   7.059
  106DOPC   PO4 1262   9.357   2.807   7.146
  106DOPC   GL1 1263   9.313   2.612   6.751
  106DOPC   GL2 1264   9.540   2.812   6.649
  106DOPC   C1A 1265   9.218   2.573   6.320
  106DOPC   D2A 1266   9.341   2.675   5.850
  106DOPC   C3A 1267   9.393   2.516   5.417
  106DOPC   C4A 1268   9.484   2.397   4.953
  106DOPC   C1B 1269   9.719   2.732   6.223
  106DOPC   D2B 1270   9.914   2.542   5.779
  106DOPC   C3B 1271   9.907   2.474   5.298
  106DOPC   C4B 1272   9.937   2.632   4.815
  107DOPC   NC3 1273   9.975   6.283   7.404
  107DOPC   PO4 1274   9.821   6.651   7.485
  107DOPC   GL1 1275   9.741   6.763   7.100
  107DOPC   GL2 1276   9.459   6.788   7.069
  107DOPC   C1A 1277   9.903   6.622   6.722
  107DOPC   D2A 1278  10.014   6.707   6.249
  107DOPC   C3A 1279   9.957   6.645   5.791
  107DOPC   C4A 1280   9.897   6.513   5.318
  107DOPC   C1B 1281   9.403   6.673   6.622
  107DOPC   D2B 1282   9.429   6.697   6.101
  107DOPC   C3B 1283   9.468   6.571   5.628
  107DOPC   C4B 1284   9.419   6.434   5.141
  108DOPC   NC3 1285  19.672   6.713   7.365
  108DOPC   PO4 1286  19.449   7.008   7.206
  108DOPC   GL1 1287  19.644   6.938   6.839
  108DOPC   GL2 1288  19.610   6.628   6.856
  108DOPC   C1A 1289  19.579   6.979   6.401
  108DOPC   D2A 1290  19.424   7.092   5.937
  108DOPC   C3A 1291  19.595   7.024   5.504
  108DOPC   C4A 1292  19.978   6.859   5.222
  108DOPC   C1B 1293  19.628   6.473   6.413
  108DOPC   D2B 1294  19.638   6.597   5.916
  108DOPC   C3B 1295  19.672   6.508   5.447
  108DOPC   C4B 1296  19.546   6.624   4.971
  109DOPC   NC3 1297  16.395   5.898   7.423
  109DOPC   PO4 1298  16.755   6.085   7.446
  109DOPC   GL1 1299  16.937   5.920   7.079
  109DOPC   GL2 1300  16.693   5.721   7.067
  109DOPC   C1A 1301  17.024   5.941   6.639
  109DOPC   D2A 1302  16.876   5.962   6.151
  109DOPC   C3A 1303  16.925   5.834   5.693
  109DOPC   C4A 1304  16.923   5.712   5.204
  109DOPC   C1B 1305  16.618   5.645   6.609
  109DOPC   D2B 1306  16.596   5.534   6.108
  109DOPC   C3B 1307  16.480   5.587   5.636
  109DOPC   C4B 1308  16.380   5.834   5.208
  110DOPC   NC3 1309  12.684   6.028   7.410
  110DOPC   PO4 1310  12.748   6.413   7.333
  110DOPC   GL1 1311  12.930   6.347   6.924
  110DOPC   GL2 1312  12.820   6.051   6.959
  110DOPC   C1A 1313  12.896   6.270   6.477
  110DOPC   D2A 1314  12.765   6.110   6.001
  110DOPC   C3A 1315  12.708   6.142   5.517
  110DOPC   C4A 1316  12.595   6.113   5.016
  110DOPC   C1B 1317  12.807   5.780   6.577
  110DOPC   D2B 1318  12.616   5.609   6.140
  110DOPC   C3B 1319  12.654   5.651   5.678
  110DOPC   C4B 1320  12.840   5.693   5.214
  111DOPC   NC3 1321   7.386   0.673   7.478
  111DOPC   PO4 1322   7.415   0.350   7.248
  111DOPC   GL1 1323   7.268   0.583   6.933
  111DOPC   GL2 1324   7.424   0.834   7.026
  111DOPC   C1A 1325   7.337   0.425   6.519
  111DOPC   D2A 1326   7.494   0.282   6.060
  111DOPC   C3A 1327   7.467   0.262   5.593
  111DOPC   C4A 1328   7.725   0.099   5.209
  111DOPC   C1B 1329   7.486   0.925   6.599
  111DOPC   D2B 1330   7.686   1.012   6.134
  111DOPC   C3B 1331   7.547   0.849   5.710
  111DOPC   C4B 1332   7.339   0.699   5.277
  112DOPC   NC3 1333  19.668   5.214   7.405
  112DOPC   PO4 1334  19.444   5.497   7.239
  112DOPC   GL1 1335  19.463   5.339   6.858
  112DOPC   GL2 1336  19.740   5.239   6.885
  112DOPC   C1A 1337  19.467   5.538   6.465
  112DOPC   D2A 1338  19.639   5.737   6.042
  112DOPC   C3A 1339  19.634   5.572   5.605
  112DOPC   C4A 1340  19.614   5.384   5.148
  112DOPC   C1B 1341  19.940   5.339   6.481
  112DOPC   D2B 1342  19.958   5.314   5.969
  112DOPC   C3B 1343  19.832   5.097   5.571
  112DOPC   C4B 1344  19.780   4.875   5.140
  113DOPC   NC3 1345   0.008   5.878   7.473
  113DOPC   PO4 1346  19.977   5.562   7.217
  113DOPC   GL1 1347  19.839   5.665   6.809
  113DOPC   GL2 1348  19.584   5.790   6.906
  113DOPC   C1A 1349  19.869   5.940   6.459
  113DOPC   D2A 1350  19.896   6.179   6.014
  113DOPC   C3A 1351  20.000   5.928   5.630
  113DOPC   C4A 1352   0.077   5.519   5.348
  113DOPC   C1B 1353  19.378   6.039   6.583
  113DOPC   D2B 1354  19.336   6.177   6.096
  113DOPC   C3B 1355  19.498   6.071   5.666
  113DOPC   C4B 1356  19.686   5.944   5.220
  114DOPC   NC3 1357  19.172   1.891   7.396
  114DOPC   PO4 1358  19.277   1.654   7.088
  114DOPC   GL1 1359  19.331   1.805   6.688
  114DOPC   GL2 1360  19.567   1.601   6.665
  114DOPC   C1A 1361  19.318   2.056   6.309
  114DOPC   D2A 1362  19.252   2.222   5.832
  114DOPC   C3A 1363  19.389   2.101   5.388
  114DOPC   C4A 1364  19.623   1.709   5.181
  114DOPC   C1B 1365  19.547   1.603   6.229
  114DOPC   D2B 1366  19.506   1.749   5.755
  114DOPC   C3B 1367  19.889   1.931   5.539
  114DOPC   C4B 1368   0.174   1.787   5.162
  115DOPC   NC3 1369  17.923   5.832   7.112
  115DOPC   PO4 1370  18.281   5.995   7.195
  115DOPC   GL1 1371  18.444   6.291   6.905
  115DOPC   GL2 1372  18.166   6.386   6.916
  115DOPC   C1A 1373  18.464   6.244   6.466
  115DOPC   D2A 1374  18.292   6.128   6.006
  115DOPC   C3A 1375  18.354   5.979   5.557
  115DOPC   C4A 1376  18.444   5.694   5.154
  115DOPC   C1B 1377  17.954   6.189   6.588
  115DOPC   D2B 1378  17.741   6.118   6.144
  115DOPC   C3B 1379  17.846   6.118   5.689
  115DOPC   C4B 1380  17.965   6.093   5.208
  116DOPC   NC3 1381  13.482   3.390   7.508
  116DOPC   PO4 1382  13.681   3.136   7.273
  116DOPC   GL1 1383  13.443   3.099   6.912
  116DOPC   GL2 1384  13.449   3.415   6.935
  116DOPC   C1A 1385  13.406   3.060   6.476
  116DOPC   D2A 1386  13.530   3.224   6.023
  116DOPC   C3A 1387  13.397   3.130   5.584
  116DOPC   C4A 1388  13.122   3.071   5.176
  116DOPC   C1B 1389  13.373   3.590   6.531
  116DOPC   D2B 1390  13.340   3.802   6.068
  116DOPC   C3B 1391  13.528   3.775   5.627
  116DOPC   C4B 1392  13.777   3.639   5.204
  117DOPC   NC3 1393  15.588   5.234   7.278
  117DOPC   PO4 1394  15.866   4.965   7.210
  117DOPC   GL1 1395  16.208   5.032   6.912
  117DOPC   GL2 1396  15.954   5.157   6.779
  117DOPC   C1A 1397  16.228   4.820   6.525
  117DOPC   D2A 1398  16.224   4.679   6.041
  117DOPC   C3A 1399  16.072   4.826   5.615
  117DOPC   C4A 1400  16.123   5.121   5.216
  117DOPC   C1B 1401  15.793   5.057   6.363
  117DOPC   D2B 1402  15.661   5.010   5.866
  117DOPC   C3B 1403  15.641   5.055   5.383
  117DOPC   C4B 1404  15.734   5.124   4.889
  118DOPC   NC3 1405   7.866   1.879   7.270
  118DOPC   PO4 1406   7.549   1.631   7.236
  118DOPC   GL1 1407   7.523   1.720   6.819
  118DOPC   GL2 1408   7.605   2.009   6.895
  118DOPC   C1A 1409   7.299   1.766   6.425
  118DOPC   D2A 1410   7.099   1.921   5.982
  118DOPC   C3A 1411   7.011   1.711   5.557
  118DOPC   C4A 1412   6.915   1.414   5.162
  118DOPC   C1B 1413   7.469   2.236   6.536
  118DOPC   D2B 1414   7.265   2.429   6.120
  118DOPC   C3B 1415   7.055   2.360   5.710
  118DOPC   C4B 1416   6.816   2.175   5.323
  119DOPC   NC3 1417   0.517   5.325   7.350
  119DOPC   PO4 1418   0.477   5.721   7.350
  119DOPC   GL1 1419   0.402   5.558   6.959
  119DOPC   GL2 1420   0.718   5.538   6.954
  119DOPC   C1A 1421   0.303   5.680   6.555
  119DOPC   D2A 1422   0.174   5.756   6.090
  119DOPC   C3A 1423   0.421   5.630   5.719
  119DOPC   C4A 1424   0.750   5.509   5.364
  119DOPC   C1B 1425   0.721   5.918   6.693
  119DOPC   D2B 1426   0.443   6.173   6.345
  119DOPC   C3B 1427   0.414   6.147   5.868
  119DOPC   C4B 1428   0.448   6.028   5.379
  120DOPC   NC3 1429   5.721   0.157   7.654
  120DOPC   PO4 1430   5.775   0.485   7.422
  120DOPC   GL1 1431   6.067   0.361   7.075
  120DOPC   GL2 1432   6.083   0.654   7.057
  120DOPC   C1A 1433   6.246   0.291   6.664
  120DOPC   D2A 1434   6.394   0.154   6.197
  120DOPC   C3A 1435   6.216   0.087   5.771
  120DOPC   C4A 1436   6.086   0.233   5.314
  120DOPC   C1B 1437   5.864   0.749   6.692
  120DOPC   D2B 1438   5.721   0.959   6.249
  120DOPC   C3B 1439   5.841   0.887   5.794
  120DOPC   C4B 1440   6.078   0.770   5.367
  121DOPC   NC3 1441   7.235   6.510   7.520
  121DOPC   PO4 1442   7.566   6.610   7.308
  121DOPC   GL1 1443   7.451   6.830   6.976
  121DOPC   GL2 1444   7.181   6.674   7.051
  121DOPC   C1A 1445   7.512   6.798   6.531
  121DOPC   D2A 1446   7.503   6.603   6.059
  121DOPC   C3A 1447   7.516   6.761   5.612
  121DOPC   C4A 1448   7.667   6.920   5.172
  121DOPC   C1B 1449   7.103   6.499   6.668
  121DOPC   D2B 1450   7.085   6.315   6.208
  121DOPC   C3B 1451   7.154   6.334   5.750
  121DOPC   C4B 1452   7.116   6.281   5.270
  122DOPC   NC3 1453   5.096   7.644   6.861
  122DOPC   PO4 1454   4.730   7.794   6.884
  122DOPC   GL1 1455   4.874   8.150   6.704
  122DOPC   GL2 1456   5.155   8.115   6.838
  122DOPC   C1A 1457   4.923   8.088   6.263
  122DOPC   D2A 1458   4.955   8.098   5.755
  122DOPC   C3A 1459   4.942   8.262   5.306
  122DOPC   C4A 1460   4.753   8.366   4.841
  122DOPC   C1B 1461   5.440   7.985   6.519
  122DOPC   D2B 1462   5.582   7.802   6.073
  122DOPC   C3B 1463   5.499   7.927   5.634
  122DOPC   C4B 1464   5.529   7.860   5.148
  123DOPC   NC3 1465  17.793   3.434   7.411
  123DOPC   PO4 1466  17.766   3.146   7.129
  123DOPC   GL1 1467  17.465   3.299   6.880
  123DOPC   GL2 1468  17.559   3.578   6.973
  123DOPC   C1A 1469  17.534   3.195   6.436
  123DOPC   D2A 1470  17.608   3.193   5.930
  123DOPC   C3A 1471  17.674   3.515   5.573
  123DOPC   C4A 1472  17.772   3.764   5.137
  123DOPC   C1B 1473  17.786   3.628   6.593
  123DOPC   D2B 1474  17.991   3.372   6.212
  123DOPC   C3B 1475  18.120   3.346   5.758
  123DOPC   C4B 1476  18.228   3.596   5.342
  124DOPC   NC3 1477   2.266   7.731   7.508
  124DOPC   PO4 1478   2.125   7.561   7.167
  124DOPC   GL1 1479   2.181   7.657   6.733
  124DOPC   GL2 1480   2.490   7.560   6.765
  124DOPC   C1A 1481   2.324   7.701   6.314
  124DOPC   D2A 1482   2.668   7.699   5.932
  124DOPC   C3A 1483   2.647   7.806   5.471
  124DOPC   C4A 1484   2.667   8.150   5.108
  124DOPC   C1B 1485   2.822   7.664   6.438
  124DOPC   D2B 1486   3.128   7.916   6.096
  124DOPC   C3B 1487   3.113   8.009   5.628
  124DOPC   C4B 1488   3.089   7.828   5.164
  125DOPC   NC3 1489   3.692   1.432   7.150
  125DOPC   PO4 1490   3.304   1.475   7.225
  125DOPC   GL1 1491   3.247   1.767   6.859
  125DOPC   GL2 1492   3.533   1.823   6.940
  125DOPC   C1A 1493   3.275   1.850   6.399
  125DOPC   D2A 1494   3.312   1.829   5.892
  125DOPC   C3A 1495   3.196   2.073   5.505
  125DOPC   C4A 1496   3.304   2.148   5.026
  125DOPC   C1B 1497   3.666   1.561   6.614
  125DOPC   D2B 1498   3.629   1.509   6.122
  125DOPC   C3B 1499   3.794   1.634   5.697
  125DOPC   C4B 1500   3.888   1.601   5.210
  126DOPC   NC3 1501   5.964   8.472   7.304
  126DOPC   PO4 1502   6.337   8.477   7.153
  126DOPC   GL1 1503   6.334   8.412   6.720
  126DOPC   GL2 1504   6.027   8.339   6.784
  126DOPC   C1A 1505   6.278   8.539   6.294
  126DOPC   D2A 1506   6.205   8.666   5.805
  126DOPC   C3A 1507   6.259   8.782   5.340
  126DOPC   C4A 1508   6.311   8.910   4.845
  126DOPC   C1B 1509   5.769   8.469   6.424
  126DOPC   D2B 1510   5.692   8.648   5.955
  126DOPC   C3B 1511   5.759   8.806   5.508
  126DOPC   C4B 1512   5.906   9.081   5.122
  127DOPC   NC3 1513  15.448   7.981   7.365
  127DOPC   PO4 1514  15.735   7.707   7.429
  127DOPC   GL1 1515  15.747   7.824   7.019
  127DOPC   GL2 1516  15.852   8.096   7.110
  127DOPC   C1A 1517  15.608   7.803   6.581
  127DOPC   D2A 1518  15.563   7.993   6.105
  127DOPC   C3A 1519  15.781   7.864   5.705
  127DOPC   C4A 1520  16.153   7.763   5.386
  127DOPC   C1B 1521  15.938   8.187   6.689
  127DOPC   D2B 1522  15.949   8.356   6.207
  127DOPC   C3B 1523  15.885   8.369   5.739
  127DOPC   C4B 1524  15.856   8.188   5.277
  128DOPC   NC3 1525   1.076   5.463   7.288
  128DOPC   PO4 1526   1.464   5.424   7.171
  128DOPC   GL1 1527   1.384   5.231   6.770
  128DOPC   GL2 1528   1.087   5.283   6.835
  128DOPC   C1A 1529   1.280   5.346   6.349
  128DOPC   D2A 1530   1.082   5.474   5.910
  128DOPC   C3A 1531   1.361   5.708   5.615
  128DOPC   C4A 1532   1.581   5.976   5.263
  128DOPC   C1B 1533   0.819   5.452   6.510
  128DOPC   D2B 1534   0.710   5.780   6.135
  128DOPC   C3B 1535   0.861   5.907   5.695
  128DOPC   C4B 1536   1.067   5.912   5.239
  129DOPC   NC3 1537   4.513   7.276   7.427
  129DOPC   PO4 1538   4.808   7.360   7.178
  129DOPC   GL1 1539   4.544   7.329   6.849
  129DOPC   GL2 1540   4.506   7.027   6.960
  129DOPC   C1A 1541   4.412   7.457   6.424
  129DOPC   D2A 1542   4.498   7.739   6.009
  129DOPC   C3A 1543   4.584   7.698   5.546
  129DOPC   C4A 1544   4.697   7.526   5.087
  129DOPC   C1B 1545   4.455   6.952   6.538
  129DOPC   D2B 1546   4.224   7.023   6.109
  129DOPC   C3B 1547   4.315   7.316   5.760
  129DOPC   C4B 1548   4.251   7.395   5.273
  130DOPC   NC3 1549  13.954   7.987   7.477
  130DOPC   PO4 1550  14.057   8.321   7.282
  130DOPC   GL1 1551  13.913   8.229   6.872
  130DOPC   GL2 1552  13.626   8.249   6.971
  130DOPC   C1A 1553  13.827   7.899   6.581
  130DOPC   D2A 1554  13.615   7.847   6.124
  130DOPC   C3A 1555  13.788   7.863   5.682
  130DOPC   C4A 1556  13.873   8.122   5.269
  130DOPC   C1B 1557  13.387   8.189   6.584
  130DOPC   D2B 1558  13.240   8.317   6.115
  130DOPC   C3B 1559  13.198   8.341   5.640
  130DOPC   C4B 1560  13.111   8.342   5.160
  131DOPC   NC3 1561   1.013   8.051   7.279
  131DOPC   PO4 1562   1.122   8.438   7.298
  131DOPC   GL1 1563   1.280   8.411   6.905
  131DOPC   GL2 1564   1.250   8.102   6.886
  131DOPC   C1A 1565   1.028   8.364   6.544
  131DOPC   D2A 1566   0.899   8.310   6.061
  131DOPC   C3A 1567   1.114   8.304   5.625
  131DOPC   C4A 1568   1.424   8.197   5.245
  131DOPC   C1B 1569   1.269   7.866   6.504
  131DOPC   D2B 1570   1.231   7.666   6.045
  131DOPC   C3B 1571   1.157   7.744   5.585
  131DOPC   C4B 1572   1.145   7.771   5.100
  132DOPC   NC3 1573   8.852   8.611   7.354
  132DOPC   PO4 1574   9.137   8.885   7.302
  132DOPC   GL1 1575   9.153   8.634   6.920
  132DOPC   GL2 1576   8.852   8.704   6.893
  132DOPC   C1A 1577   9.128   8.563   6.475
  132DOPC   D2A 1578   8.963   8.629   5.997
  132DOPC   C3A 1579   9.124   8.640   5.548
  132DOPC   C4A 1580   9.283   8.636   5.066
  132DOPC   C1B 1581   8.730   8.873   6.488
  132DOPC   D2B 1582   8.787   9.125   6.064
  132DOPC   C3B 1583   8.727   8.972   5.628
  132DOPC   C4B 1584   8.559   9.051   5.168
  133DOPC   NC3 1585   8.432   9.385   7.471
  133DOPC   PO4 1586   8.171   9.258   7.196
  133DOPC   GL1 1587   8.359   9.165   6.767
  133DOPC   GL2 1588   8.255   9.457   6.750
  133DOPC   C1A 1589   8.315   9.134   6.307
  133DOPC   D2A 1590   8.271   9.194   5.820
  133DOPC   C3A 1591   8.265   9.555   5.525
  133DOPC   C4A 1592   8.444   9.865   5.191
  133DOPC   C1B 1593   8.005   9.583   6.396
  133DOPC   D2B 1594   7.655   9.679   6.048
  133DOPC   C3B 1595   7.763   9.711   5.589
  133DOPC   C4B 1596   7.951   9.662   5.128
  134DOPC   NC3 1597  10.818   2.694   7.547
  134DOPC   PO4 1598  10.666   2.424   7.282
  134DOPC   GL1 1599  10.753   2.413   6.860
  134DOPC   GL2 1600  10.882   2.702   6.904
  134DOPC   C1A 1601  10.583   2.388   6.438
  134DOPC   D2A 1602  10.397   2.462   5.982
  134DOPC   C3A 1603  10.413   2.419   5.520
  134DOPC   C4A 1604  10.780   2.319   5.236
  134DOPC   C1B 1605  10.650   2.872   6.568
  134DOPC   D2B 1606  10.376   2.962   6.153
  134DOPC   C3B 1607  10.340   2.904   5.688
  134DOPC   C4B 1608  10.270   2.814   5.207
  135DOPC   NC3 1609   7.387   7.706   7.160
  135DOPC   PO4 1610   7.027   7.518   7.212
  135DOPC   GL1 1611   6.839   7.432   6.851
  135DOPC   GL2 1612   6.669   7.197   6.929
  135DOPC   C1A 1613   6.878   7.450   6.407
  135DOPC   D2A 1614   6.973   7.318   5.931
  135DOPC   C3A 1615   6.871   7.259   5.468
  135DOPC   C4A 1616   6.600   6.969   5.161
  135DOPC   C1B 1617   6.538   7.086   6.528
  135DOPC   D2B 1618   6.578   6.976   6.043
  135DOPC   C3B 1619   6.411   7.162   5.655
  135DOPC   C4B 1620   6.439   7.454   5.248
  136DOPC   NC3 1621   3.158   0.606   7.415
  136DOPC   PO4 1622   3.503   0.403   7.374
  136DOPC   GL1 1623   3.447   0.596   6.972
  136DOPC   GL2 1624   3.655   0.364   6.914
  136DOPC   C1A 1625   3.451   0.680   6.539
  136DOPC   D2A 1626   3.431   0.506   6.067
  136DOPC   C3A 1627   3.600   0.607   5.637
  136DOPC   C4A 1628   3.745   0.703   5.176
  136DOPC   C1B 1629   3.708   0.224   6.500
  136DOPC   D2B 1630   3.712   0.055   6.032
  136DOPC   C3B 1631   3.630   0.088   5.559
  136DOPC   C4B 1632   3.655   9.870   5.114
  137DOPC   NC3 1633   1.905   2.229   7.176
  137DOPC   PO4 1634   1.508   2.321   7.158
  137DOPC   GL1 1635   1.493   2.236   6.726
  137DOPC   GL2 1636   1.738   2.056   6.776
  137DOPC   C1A 1637   1.571   2.332   6.294
  137DOPC   D2A 1638   1.609   2.346   5.798
  137DOPC   C3A 1639   1.704   2.181   5.366
  137DOPC   C4A 1640   1.580   2.172   4.875
  137DOPC   C1B 1641   2.048   1.940   6.471
  137DOPC   D2B 1642   2.323   1.923   6.066
  137DOPC   C3B 1643   2.192   1.946   5.618
  137DOPC   C4B 1644   2.030   1.828   5.159
  138DOPC   NC3 1645  15.513   8.495   7.434
  138DOPC   PO4 1646  15.336   8.796   7.244
  138DOPC   GL1 1647  15.429   8.605   6.875
  138DOPC   GL2 1648  15.699   8.515   6.955
  138DOPC   C1A 1649  15.455   8.823   6.488
  138DOPC   D2A 1650  15.344   9.017   6.035
  138DOPC   C3A 1651  15.399   8.810   5.610
  138DOPC   C4A 1652  15.451   8.551   5.190
  138DOPC   C1B 1653  15.945   8.686   6.602
  138DOPC   D2B 1654  16.228   8.802   6.182
  138DOPC   C3B 1655  16.246   8.712   5.712
  138DOPC   C4B 1656  16.032   8.673   5.264
  139DOPC   NC3 1657  10.660   5.892   7.610
  139DOPC   PO4 1658  10.264   5.896   7.588
  139DOPC   GL1 1659  10.212   5.935   7.167
  139DOPC   GL2 1660  10.510   5.898   7.124
  139DOPC   C1A 1661  10.169   5.698   6.797
  139DOPC   D2A 1662  10.080   5.702   6.305
  139DOPC   C3A 1663  10.109   5.683   5.830
  139DOPC   C4A 1664  10.232   5.651   5.339
  139DOPC   C1B 1665  10.566   5.965   6.666
  139DOPC   D2B 1666  10.488   5.978   6.151
  139DOPC   C3B 1667  10.573   5.819   5.701
  139DOPC   C4B 1668  10.726   5.510   5.332
  140DOPC   NC3 1669   2.787   5.229   7.343
  140DOPC   PO4 1670   2.543   4.921   7.275
  140DOPC   GL1 1671   2.622   5.177   6.907
  140DOPC   GL2 1672   2.352   5.095   6.822
  140DOPC   C1A 1673   2.946   5.238   6.590
  140DOPC   D2A 1674   3.078   5.504   6.162
  140DOPC   C3A 1675   3.133   5.423   5.686
  140DOPC   C4A 1676   3.310   5.300   5.229
  140DOPC   C1B 1677   2.513   4.970   6.439
  140DOPC   D2B 1678   2.679   4.809   5.999
  140DOPC   C3B 1679   2.793   5.043   5.617
  140DOPC   C4B 1680   2.821   5.201   5.157
  141DOPC   NC3 1681   5.830   3.626   7.466
  141DOPC   PO4 1682   6.039   3.299   7.352
  141DOPC   GL1 1683   6.233   3.332   6.911
  141DOPC   GL2 1684   6.255   3.623   6.986
  141DOPC   C1A 1685   6.149   3.351   6.445
  141DOPC   D2A 1686   6.066   3.289   5.932
  141DOPC   C3A 1687   6.074   3.305   5.450
  141DOPC   C4A 1688   6.090   3.198   4.953
  141DOPC   C1B 1689   6.012   3.825   6.660
  141DOPC   D2B 1690   5.856   3.766   6.186
  141DOPC   C3B 1691   5.840   3.695   5.718
  141DOPC   C4B 1692   5.658   3.594   5.273
  142DOPC   NC3 1693  14.933   9.809   7.280
  142DOPC   PO4 1694  15.234   0.063   7.237
  142DOPC   GL1 1695  14.946   0.113   6.882
  142DOPC   GL2 1696  15.126   9.878   6.781
  142DOPC   C1A 1697  14.724   0.113   6.494
  142DOPC   D2A 1698  14.650   9.934   6.015
  142DOPC   C3A 1699  14.676   9.905   5.529
  142DOPC   C4A 1700  14.729   9.822   5.035
  142DOPC   C1B 1701  15.089   9.810   6.330
  142DOPC   D2B 1702  15.096   9.781   5.820
  142DOPC   C3B 1703  15.061   9.574   5.382
  142DOPC   C4B 1704  15.082   9.420   4.898
  143DOPC   NC3 1705  19.060   9.265   7.486
  143DOPC   PO4 1706  18.744   9.222   7.243
  143DOPC   GL1 1707  18.845   9.350   6.846
  143DOPC   GL2 1708  19.094   9.503   6.904
  143DOPC   C1A 1709  18.862   9.111   6.454
  143DOPC   D2A 1710  18.835   8.873   5.987
  143DOPC   C3A 1711  18.790   8.819   5.504
  143DOPC   C4A 1712  18.627   8.606   5.074
  143DOPC   C1B 1713  19.299   9.497   6.498
  143DOPC   D2B 1714  19.520   9.351   6.056
  143DOPC   C3B 1715  19.358   9.007   5.749
  143DOPC   C4B 1716  19.238   8.537   5.585
  144DOPC   NC3 1717   8.180   7.451   7.185
  144DOPC   PO4 1718   7.790   7.393   7.118
  144DOPC   GL1 1719   7.761   7.165   6.754
  144DOPC   GL2 1720   8.078   7.187   6.814
  144DOPC   C1A 1721   7.758   7.283   6.314
  144DOPC   D2A 1722   7.859   7.485   5.847
  144DOPC   C3A 1723   7.823   7.376   5.376
  144DOPC   C4A 1724   7.694   7.369   4.880
  144DOPC   C1B 1725   8.265   7.380   6.467
  144DOPC   D2B 1726   8.369   7.568   6.012
  144DOPC   C3B 1727   8.301   7.328   5.611
  144DOPC   C4B 1728   8.501   7.004   5.284
  145DOPC   NC3 1729   1.095   1.171   7.283
  145DOPC   PO4 1730   1.188   1.550   7.188
  145DOPC   GL1 1731   0.996   1.593   6.815
  145DOPC   GL2 1732   0.915   1.295   6.843
  145DOPC   C1A 1733   1.195   1.514   6.416
  145DOPC   D2A 1734   1.447   1.520   5.973
  145DOPC   C3A 1735   1.350   1.376   5.525
  145DOPC   C4A 1736   1.300   1.277   5.040
  145DOPC   C1B 1737   0.897   1.076   6.455
  145DOPC   D2B 1738   1.043   0.936   5.993
  145DOPC   C3B 1739   0.980   0.956   5.525
  145DOPC   C4B 1740   0.937   0.888   5.040
  146DOPC   NC3 1741   3.545   4.616   7.393
  146DOPC   PO4 1742   3.596   4.801   7.040
  146DOPC   GL1 1743   3.347   4.783   6.721
  146DOPC   GL2 1744   3.218   4.520   6.803
  146DOPC   C1A 1745   3.486   4.694   6.313
  146DOPC   D2A 1746   3.697   4.863   5.896
  146DOPC   C3A 1747   3.693   4.546   5.539
  146DOPC   C4A 1748   3.813   4.136   5.259
  146DOPC   C1B 1749   3.120   4.210   6.502
  146DOPC   D2B 1750   3.075   3.878   6.118
  146DOPC   C3B 1751   3.137   4.055   5.686
  146DOPC   C4B 1752   3.295   4.299   5.284
  147DOPC   NC3 1753   1.647   6.018   7.511
  147DOPC   PO4 1754   2.036   5.923   7.501
  147DOPC   GL1 1755   2.121   5.825   7.085
  147DOPC   GL2 1756   1.821   5.755   7.041
  147DOPC   C1A 1757   2.231   5.909   6.668
  147DOPC   D2A 1758   2.305   6.010   6.189
  147DOPC   C3A 1759   2.261   6.092   5.727
  147DOPC   C4A 1760   2.218   6.257   5.260
  147DOPC   C1B 1761   1.721   5.703   6.600
  147DOPC   D2B 1762   1.653   5.632   6.095
  147DOPC   C3B 1763   1.872   5.713   5.676
  147DOPC   C4B 1764   2.038   5.785   5.214
  148DOPC   NC3 1765  16.442   0.201   7.100
  148DOPC   PO4 1766  16.472   9.811   7.173
  148DOPC   GL1 1767  16.673   9.788   6.849
  148DOPC   GL2 1768  16.958   9.790   6.866
  148DOPC   C1A 1769  16.531   9.742   6.439
  148DOPC   D2A 1770  16.599   9.788   5.954
  148DOPC   C3A 1771  16.429   9.826   5.523
  148DOPC   C4A 1772  16.304   9.974   5.074
  148DOPC   C1B 1773  17.032   9.582   6.481
  148DOPC   D2B 1774  16.977   9.414   6.009
  148DOPC   C3B 1775  16.931   9.629   5.600
  148DOPC   C4B 1776  16.801   9.798   5.155
  149DOPC   NC3 1777   3.022   1.108   7.492
  149DOPC   PO4 1778   2.753   0.880   7.294
  149DOPC   GL1 1779   3.086   0.932   7.040
  149DOPC   GL2 1780   2.972   1.210   7.030
  149DOPC   C1A 1781   3.005   0.927   6.632
  149DOPC   D2A 1782   3.007   0.879   6.137
  149DOPC   C3A 1783   3.120   0.822   5.686
  149DOPC   C4A 1784   3.188   0.730   5.212
  149DOPC   C1B 1785   2.605   1.255   6.754
  149DOPC   D2B 1786   2.513   1.496   6.305
  149DOPC   C3B 1787   2.499   1.523   5.824
  149DOPC   C4B 1788   2.482   1.618   5.331
  150DOPC   NC3 1789   2.272   9.644   6.923
  150DOPC   PO4 1790   2.616   9.447   7.011
  150DOPC   GL1 1791   2.881   9.469   6.657
  150DOPC   GL2 1792   2.610   9.436   6.528
  150DOPC   C1A 1793   3.095   9.199   6.382
  150DOPC   D2A 1794   3.193   8.855   6.018
  150DOPC   C3A 1795   3.140   8.606   5.608
  150DOPC   C4A 1796   3.131   8.365   5.173
  150DOPC   C1B 1797   2.657   9.265   6.123
  150DOPC   D2B 1798   2.788   8.985   5.729
  150DOPC   C3B 1799   2.680   8.766   5.326
  150DOPC   C4B 1800   2.497   8.635   4.879
  151DOPC   NC3 1801  19.789   4.735   7.529
  151DOPC   PO4 1802  19.935   4.465   7.274
  151DOPC   GL1 1803  19.790   4.455   6.861
  151DOPC   GL2 1804  19.926   4.185   6.799
  151DOPC   C1A 1805  19.749   4.557   6.415
  151DOPC   D2A 1806  19.709   4.744   5.950
  151DOPC   C3A 1807  19.806   4.543   5.541
  151DOPC   C4A 1808  19.875   4.359   5.081
  151DOPC   C1B 1809  19.906   4.062   6.358
  151DOPC   D2B 1810  19.814   3.998   5.846
  151DOPC   C3B 1811  19.610   4.071   5.406
  151DOPC   C4B 1812  19.463   4.102   4.912
  152DOPC   NC3 1813  15.641   2.672   7.191
  152DOPC   PO4 1814  15.576   2.281   7.122
  152DOPC   GL1 1815  15.628   2.275   6.680
  152DOPC   GL2 1816  15.770   2.547   6.731
  152DOPC   C1A 1817  15.623   2.347   6.234
  152DOPC   D2A 1818  15.640   2.378   5.723
  152DOPC   C3A 1819  15.755   2.283   5.273
  152DOPC   C4A 1820  15.845   2.444   4.805
  152DOPC   C1B 1821  15.967   2.722   6.353
  152DOPC   D2B 1822  16.064   2.799   5.865
  152DOPC   C3B 1823  15.857   2.791   5.433
  152DOPC   C4B 1824  15.471   2.876   5.128
  153DOPC   NC3 1825  18.165   0.617   7.348
  153DOPC   PO4 1826  18.280   0.893   7.094
  153DOPC   GL1 1827  18.272   0.752   6.711
  153DOPC   GL2 1828  18.047   0.564   6.849
  153DOPC   C1A 1829  18.298   0.457   6.403
  153DOPC   D2A 1830  18.229   0.143   6.027
  153DOPC   C3A 1831  18.223   0.280   5.589
  153DOPC   C4A 1832  18.120   0.050   5.173
  153DOPC   C1B 1833  17.763   0.410   6.537
  153DOPC   D2B 1834  17.659   0.265   6.062
  153DOPC   C3B 1835  17.713   0.282   5.593
  153DOPC   C4B 1836  17.910   0.516   5.204
  154DOPC   NC3 1837   0.645   9.826   7.513
  154DOPC   PO4 1838   0.776   9.451   7.422
  154DOPC   GL1 1839   0.615   9.441   7.011
  154DOPC   GL2 1840   0.672   9.773   7.020
  154DOPC   C1A 1841   0.521   9.197   6.621
  154DOPC   D2A 1842   0.486   9.126   6.116
  154DOPC   C3A 1843   0.365   9.158   5.655
  154DOPC   C4A 1844   0.145   9.302   5.237
  154DOPC   C1B 1845   0.543   0.009   6.632
  154DOPC   D2B 1846   0.448   0.138   6.137
  154DOPC   C3B 1847   0.602   0.053   5.692
  154DOPC   C4B 1848   0.671   0.050   5.200
  155DOPC   NC3 1849  17.323   8.128   7.276
  155DOPC   PO4 1850  17.698   8.259   7.189
  155DOPC   GL1 1851  17.674   7.995   6.798
  155DOPC   GL2 1852  17.408   8.157   6.812
  155DOPC   C1A 1853  17.672   7.951   6.334
  155DOPC   D2A 1854  17.561   8.059   5.839
  155DOPC   C3A 1855  17.459   7.914   5.396
  155DOPC   C4A 1856  17.421   7.720   4.939
  155DOPC   C1B 1857  17.263   8.290   6.410
  155DOPC   D2B 1858  17.139   8.402   5.931
  155DOPC   C3B 1859  17.253   8.378   5.475
  155DOPC   C4B 1860  17.367   8.236   5.003
  156DOPC   NC3 1861  17.990   1.985   7.441
  156DOPC   PO4 1862  18.254   1.880   7.159
  156DOPC   GL1 1863  18.220   2.079   6.792
  156DOPC   GL2 1864  17.922   2.046   6.757
  156DOPC   C1A 1865  18.381   1.910   6.407
  156DOPC   D2A 1866  18.554   1.795   5.948
  156DOPC   C3A 1867  18.488   1.863   5.496
  156DOPC   C4A 1868  18.535   1.955   5.020
  156DOPC   C1B 1869  17.877   1.910   6.315
  156DOPC   D2B 1870  18.020   1.824   5.823
  156DOPC   C3B 1871  17.989   1.872   5.345
  156DOPC   C4B 1872  18.007   1.851   4.847
  157DOPC   NC3 1873  13.967   6.788   7.438
  157DOPC   PO4 1874  13.643   6.975   7.294
  157DOPC   GL1 1875  13.857   7.047   6.909
  157DOPC   GL2 1876  14.061   7.214   7.055
  157DOPC   C1A 1877  13.877   7.235   6.494
  157DOPC   D2A 1878  13.818   7.385   6.017
  157DOPC   C3A 1879  13.940   7.281   5.584
  157DOPC   C4A 1880  13.851   6.970   5.222
  157DOPC   C1B 1881  14.191   7.528   6.742
  157DOPC   D2B 1882  14.182   7.655   6.242
  157DOPC   C3B 1883  14.281   7.676   5.763
  157DOPC   C4B 1884  14.578   7.770   5.358
  158DOPC   NC3 1885  15.083   5.234   7.332
  158DOPC   PO4 1886  15.241   4.899   7.153
  158DOPC   GL1 1887  15.535   4.897   6.814
  158DOPC   GL2 1888  15.513   5.208   6.813
  158DOPC   C1A 1889  15.302   4.839   6.423
  158DOPC   D2A 1890  14.911   4.812   6.088
  158DOPC   C3A 1891  14.805   4.696   5.637
  158DOPC   C4A 1892  14.913   4.610   5.162
  158DOPC   C1B 1893  15.295   5.367   6.439
  158DOPC   D2B 1894  15.052   5.560   6.025
  158DOPC   C3B 1895  14.928   5.407   5.585
  158DOPC   C4B 1896  15.045   5.117   5.187
  159DOPC   NC3 1897   5.018   9.014   7.623
  159DOPC   PO4 1898   4.772   9.000   7.299
  159DOPC   GL1 1899   4.795   8.830   6.905
  159DOPC   GL2 1900   4.986   8.590   6.938
  159DOPC   C1A 1901   4.903   8.888   6.481
  159DOPC   D2A 1902   4.966   8.596   6.075
  159DOPC   C3A 1903   4.782   8.608   5.655
  159DOPC   C4A 1904   4.577   8.652   5.211
  159DOPC   C1B 1905   5.185   8.457   6.532
  159DOPC   D2B 1906   5.369   8.272   6.084
  159DOPC   C3B 1907   5.294   8.476   5.659
  159DOPC   C4B 1908   5.120   8.736   5.260
  160DOPC   NC3 1909   5.806   1.027   7.142
  160DOPC   PO4 1910   5.493   1.270   7.065
  160DOPC   GL1 1911   5.389   1.196   6.638
  160DOPC   GL2 1912   5.697   1.204   6.643
  160DOPC   C1A 1913   5.340   1.325   6.215
  160DOPC   D2A 1914   5.594   1.424   5.787
  160DOPC   C3A 1915   5.717   1.186   5.390
  160DOPC   C4A 1916   5.787   1.051   4.912
  160DOPC   C1B 1917   5.859   1.457   6.304
  160DOPC   D2B 1918   6.203   1.602   5.971
  160DOPC   C3B 1919   6.047   1.569   5.530
  160DOPC   C4B 1920   5.890   1.544   5.064
  161DOPC   NC3 1921   9.578   8.769   7.625
  161DOPC   PO4 1922   9.742   9.074   7.411
  161DOPC   GL1 1923   9.910   9.075   6.978
  161DOPC   GL2 1924   9.662   9.256   6.890
  161DOPC   C1A 1925   9.970   9.050   6.539
  161DOPC   D2A 1926   9.814   8.991   6.062
  161DOPC   C3A 1927   9.864   9.287   5.702
  161DOPC   C4A 1928  10.226   9.558   5.493
  161DOPC   C1B 1929   9.657   9.430   6.443
  161DOPC   D2B 1930   9.684   9.706   6.003
  161DOPC   C3B 1931   9.686   9.725   5.523
  161DOPC   C4B 1932   9.392   9.492   5.192
  162DOPC   NC3 1933   6.136   4.702   7.584
  162DOPC   PO4 1934   6.216   4.418   7.305
  162DOPC   GL1 1935   6.191   4.490   6.896
  162DOPC   GL2 1936   5.906   4.446   6.822
  162DOPC   C1A 1937   6.342   4.284   6.540
  162DOPC   D2A 1938   6.306   4.178   6.052
  162DOPC   C3A 1939   6.210   4.322   5.622
  162DOPC   C4A 1940   6.017   4.561   5.238
  162DOPC   C1B 1941   5.864   4.300   6.368
  162DOPC   D2B 1942   5.785   4.185   5.869
  162DOPC   C3B 1943   5.783   4.111   5.385
  162DOPC   C4B 1944   5.688   3.954   4.911
  163DOPC   NC3 1945  10.443   3.457   7.178
  163DOPC   PO4 1946  10.263   3.151   6.998
  163DOPC   GL1 1947  10.401   3.432   6.699
  163DOPC   GL2 1948  10.696   3.342   6.771
  163DOPC   C1A 1949  10.404   3.456   6.260
  163DOPC   D2A 1950  10.279   3.412   5.779
  163DOPC   C3A 1951  10.100   3.261   5.365
  163DOPC   C4A 1952  10.036   3.157   4.881
  163DOPC   C1B 1953  10.877   3.262   6.356
  163DOPC   D2B 1954  10.769   3.179   5.871
  163DOPC   C3B 1955  10.645   3.275   5.424
  163DOPC   C4B 1956  10.706   3.673   5.123
  164DOPC   NC3 1957   4.816   9.828   7.299
  164DOPC   PO4 1958   4.983   0.045   7.005
  164DOPC   GL1 1959   4.694   0.018   6.630
  164DOPC   GL2 1960   4.635   9.747   6.759
  164DOPC   C1A 1961   4.647   9.819   6.208
  164DOPC   D2A 1962   4.415   9.445   5.905
  164DOPC   C3A 1963   4.459   9.440   5.421
  164DOPC   C4A 1964   4.738   9.626   5.035
  164DOPC   C1B 1965   4.657   9.384   6.454
  164DOPC   D2B 1966   4.805   9.131   6.018
  164DOPC   C3B 1967   4.874   9.126   5.532
  164DOPC   C4B 1968   5.130   9.249   5.102
  165DOPC   NC3 1969   4.304   9.125   7.429
  165DOPC   PO4 1970   4.071   9.256   7.130
  165DOPC   GL1 1971   4.402   9.057   6.925
  165DOPC   GL2 1972   4.352   8.809   7.074
  165DOPC   C1A 1973   4.404   8.937   6.504
  165DOPC   D2A 1974   4.470   8.765   6.045
  165DOPC   C3A 1975   4.379   8.927   5.614
  165DOPC   C4A 1976   4.178   9.006   5.172
  165DOPC   C1B 1977   4.155   8.575   6.749
  165DOPC   D2B 1978   4.103   8.470   6.263
  165DOPC   C3B 1979   4.106   8.505   5.797
  165DOPC   C4B 1980   4.096   8.495   5.303
  166DOPC   NC3 1981   5.957   1.985   7.370
  166DOPC   PO4 1982   5.581   1.941   7.231
  166DOPC   GL1 1983   5.587   2.181   6.847
  166DOPC   GL2 1984   5.867   2.238   6.960
  166DOPC   C1A 1985   5.623   2.063   6.396
  166DOPC   D2A 1986   5.594   1.983   5.885
  166DOPC   C3A 1987   5.407   2.178   5.492
  166DOPC   C4A 1988   5.061   2.347   5.166
  166DOPC   C1B 1989   6.090   2.054   6.638
  166DOPC   D2B 1990   6.281   2.097   6.179
  166DOPC   C3B 1991   6.106   2.057   5.743
  166DOPC   C4B 1992   5.879   2.027   5.307
  167DOPC   NC3 1993   6.312   5.384   7.167
  167DOPC   PO4 1994   6.030   5.132   7.326
  167DOPC   GL1 1995   5.977   4.901   6.913
  167DOPC   GL2 1996   6.007   5.180   6.810
  167DOPC   C1A 1997   6.083   4.752   6.504
  167DOPC   D2A 1998   6.106   4.663   6.005
  167DOPC   C3A 1999   5.828   4.811   5.633
  167DOPC   C4A 2000   5.473   4.845   5.268
  167DOPC   C1B 2001   5.764   5.225   6.418
  167DOPC   D2B 2002   5.479   5.438   6.047
  167DOPC   C3B 2003   5.617   5.299   5.618
  167DOPC   C4B 2004   5.849   5.167   5.203
  168DOPC   NC3 2005   6.354   8.009   7.354
  168DOPC   PO4 2006   6.009   7.993   7.150
  168DOPC   GL1 2007   5.812   7.948   6.803
  168DOPC   GL2 2008   5.726   7.669   6.826
  168DOPC   C1A 2009   6.006   8.030   6.420
  168DOPC   D2A 2010   6.094   8.171   5.955
  168DOPC   C3A 2011   5.838   8.312   5.596
  168DOPC   C4A 2012   5.532   8.400   5.213
  168DOPC   C1B 2013   5.850   7.564   6.428
  168DOPC   D2B 2014   6.083   7.649   5.976
  168DOPC   C3B 2015   6.039   7.828   5.528
  168DOPC   C4B 2016   5.972   8.142   5.140
  169DOPC   NC3 2017  12.035   8.354   7.416
  169DOPC   PO4 2018  11.690   8.446   7.236
  169DOPC   GL1 2019  11.854   8.282   6.886
  169DOPC   GL2 2020  12.105   8.467   6.914
  169DOPC   C1A 2021  11.859   8.073   6.483
  169DOPC   D2A 2022  11.982   7.886   6.034
  169DOPC   C3A 2023  11.736   8.106   5.714
  169DOPC   C4A 2024  11.567   8.486   5.456
  169DOPC   C1B 2025  12.317   8.256   6.575
  169DOPC   D2B 2026  12.472   7.999   6.158
  169DOPC   C3B 2027  12.324   8.067   5.704
  169DOPC   C4B 2028  12.030   8.171   5.304
  170DOPC   NC3 2029   9.176   2.289   7.119
  170DOPC   PO4 2030   8.834   2.072   7.107
  170DOPC   GL1 2031   8.794   2.084   6.670
  170DOPC   GL2 2032   8.951   2.350   6.701
  170DOPC   C1A 2033   8.726   2.223   6.257
  170DOPC   D2A 2034   8.794   2.599   5.944
  170DOPC   C3A 2035   8.926   2.704   5.510
  170DOPC   C4A 2036   9.120   2.793   5.050
  170DOPC   C1B 2037   8.758   2.698   6.488
  170DOPC   D2B 2038   8.584   3.027   6.152
  170DOPC   C3B 2039   8.483   2.940   5.714
  170DOPC   C4B 2040   8.469   2.683   5.302
  171DOPC   NC3 2041  16.315   8.339   7.429
  171DOPC   PO4 2042  16.251   7.946   7.339
  171DOPC   GL1 2043  16.415   7.714   7.027
  171DOPC   GL2 2044  16.667   7.864   7.005
  171DOPC   C1A 2045  16.257   7.798   6.635
  171DOPC   D2A 2046  16.061   7.853   6.177
  171DOPC   C3A 2047  16.264   8.053   5.803
  171DOPC   C4A 2048  16.371   8.279   5.380
  171DOPC   C1B 2049  16.750   7.929   6.561
  171DOPC   D2B 2050  16.672   7.919   6.059
  171DOPC   C3B 2051  16.808   8.099   5.631
  171DOPC   C4B 2052  16.866   8.296   5.163
  172DOPC   NC3 2053   2.363   0.363   7.641
  172DOPC   PO4 2054   2.705   0.381   7.427
  172DOPC   GL1 2055   2.657   0.385   6.997
  172DOPC   GL2 2056   2.859   0.578   6.919
  172DOPC   C1A 2057   2.500   0.259   6.593
  172DOPC   D2A 2058   2.454   0.196   6.086
  172DOPC   C3A 2059   2.584   0.228   5.629
  172DOPC   C4A 2060   2.718   0.516   5.249
  172DOPC   C1B 2061   2.967   0.450   6.481
  172DOPC   D2B 2062   2.952   0.326   5.989
  172DOPC   C3B 2063   3.140   0.320   5.554
  172DOPC   C4B 2064   3.391   0.288   5.128
  173DOPC   NC3 2065  11.530   3.025   7.292
  173DOPC   PO4 2066  11.219   2.774   7.254
  173DOPC   GL1 2067  11.374   2.828   6.874
  173DOPC   GL2 2068  11.580   2.614   6.949
  173DOPC   C1A 2069  11.152   2.794   6.499
  173DOPC   D2A 2070  10.854   2.721   6.102
  173DOPC   C3A 2071  10.825   2.721   5.628
  173DOPC   C4A 2072  10.774   2.826   5.143
  173DOPC   C1B 2073  11.578   2.334   6.625
  173DOPC   D2B 2074  11.465   2.307   6.142
  173DOPC   C3B 2075  11.303   2.599   5.804
  173DOPC   C4B 2076  11.242   2.718   5.319
  174DOPC   NC3 2077  11.618   4.503   7.176
  174DOPC   PO4 2078  11.935   4.284   7.291
  174DOPC   GL1 2079  11.937   4.004   6.976
  174DOPC   GL2 2080  12.227   4.074   6.893
  174DOPC   C1A 2081  11.738   4.178   6.618
  174DOPC   D2A 2082  11.652   4.371   6.163
  174DOPC   C3A 2083  11.653   4.170   5.737
  174DOPC   C4A 2084  11.679   4.008   5.259
  174DOPC   C1B 2085  12.234   4.225   6.449
  174DOPC   D2B 2086  12.266   4.281   5.939
  174DOPC   C3B 2087  12.114   4.305   5.484
  174DOPC   C4B 2088  11.993   4.463   5.021
  175DOPC   NC3 2089   9.983   3.318   7.398
  175DOPC   PO4 2090   9.878   3.488   7.053
  175DOPC   GL1 2091   9.940   3.269   6.657
  175DOPC   GL2 2092   9.633   3.247   6.643
  175DOPC   C1A 2093   9.888   3.258   6.211
  175DOPC   D2A 2094   9.569   3.292   5.813
  175DOPC   C3A 2095   9.606   3.425   5.349
  175DOPC   C4A 2096   9.799   3.639   4.948
  175DOPC   C1B 2097   9.364   3.121   6.287
  175DOPC   D2B 2098   9.040   3.081   5.881
  175DOPC   C3B 2099   9.282   3.050   5.469
  175DOPC   C4B 2100   9.641   2.907   5.149
  176DOPC   NC3 2101  18.894   0.286   7.191
  176DOPC   PO4 2102  18.661   0.560   6.997
  176DOPC   GL1 2103  18.736   0.273   6.726
  176DOPC   GL2 2104  19.024   0.395   6.702
  176DOPC   C1A 2105  18.652   0.096   6.347
  176DOPC   D2A 2106  18.837   0.096   5.891
  176DOPC   C3A 2107  18.719   0.291   5.485
  176DOPC   C4A 2108  18.411   0.464   5.116
  176DOPC   C1B 2109  18.966   0.490   6.263
  176DOPC   D2B 2110  19.035   0.633   5.772
  176DOPC   C3B 2111  19.314   0.694   5.375
  176DOPC   C4B 2112  19.291   0.691   4.861
  177DOPC   NC3 2113  16.992   5.083   7.173
  177DOPC   PO4 2114  17.150   4.718   7.100
  177DOPC   GL1 2115  16.946   4.768   6.700
  177DOPC   GL2 2116  17.072   5.031   6.709
  177DOPC   C1A 2117  16.880   4.674   6.240
  177DOPC   D2A 2118  16.821   4.615   5.762
  177DOPC   C3A 2119  17.069   4.860   5.468
  177DOPC   C4A 2120  17.465   4.695   5.226
  177DOPC   C1B 2121  17.268   4.991   6.326
  177DOPC   D2B 2122  17.412   4.888   5.858
  177DOPC   C3B 2123  17.460   5.176   5.481
  177DOPC   C4B 2124  17.191   5.275   5.089
  178DOPC   NC3 2125   9.557   1.315   7.400
  178DOPC   PO4 2126   9.938   1.210   7.322
  178DOPC   GL1 2127   9.788   1.519   7.013
  178DOPC   GL2 2128   9.749   1.265   6.873
  178DOPC   C1A 2129   9.956   1.615   6.615
  178DOPC   D2A 2130  10.083   1.653   6.124
  178DOPC   C3A 2131  10.091   1.544   5.660
  178DOPC   C4A 2132   9.977   1.608   5.174
  178DOPC   C1B 2133   9.577   1.191   6.464
  178DOPC   D2B 2134   9.287   1.143   6.042
  178DOPC   C3B 2135   9.209   0.975   5.595
  178DOPC   C4B 2136   9.351   1.000   5.114
  179DOPC   NC3 2137  12.353   8.115   7.095
  179DOPC   PO4 2138  12.529   7.757   7.053
  179DOPC   GL1 2139  12.865   7.862   6.750
  179DOPC   GL2 2140  12.734   8.144   6.782
  179DOPC   C1A 2141  13.066   7.855   6.334
  179DOPC   D2A 2142  13.150   7.879   5.839
  179DOPC   C3A 2143  12.827   7.942   5.498
  179DOPC   C4A 2144  12.397   7.834   5.241
  179DOPC   C1B 2145  12.787   8.336   6.384
  179DOPC   D2B 2146  12.753   8.332   5.885
  179DOPC   C3B 2147  12.632   8.413   5.436
  179DOPC   C4B 2148  12.654   8.427   4.942
  180DOPC   NC3 2149  15.126   2.525   7.699
  180DOPC   PO4 2150  15.135   2.565   7.301
  180DOPC   GL1 2151  15.279   2.565   6.860
  180DOPC   GL2 2152  15.088   2.816   6.894
  180DOPC   C1A 2153  15.036   2.436   6.486
  180DOPC   D2A 2154  14.775   2.349   6.040
  180DOPC   C3A 2155  14.834   2.368   5.566
  180DOPC   C4A 2156  14.845   2.511   5.089
  180DOPC   C1B 2157  14.691   2.771   6.674
  180DOPC   D2B 2158  14.459   2.749   6.223
  180DOPC   C3B 2159  14.671   2.808   5.797
  180DOPC   C4B 2160  14.970   2.905   5.406
  181DOPC   NC3 2161  17.119   2.650   7.123
  181DOPC   PO4 2162  17.519   2.666   7.158
  181DOPC   GL1 2163  17.548   2.864   6.812
  181DOPC   GL2 2164  17.265   2.923   6.785
  181DOPC   C1A 2165  17.619   2.686   6.429
  181DOPC   D2A 2166  17.428   2.695   5.975
  181DOPC   C3A 2167  17.538   2.835   5.542
  181DOPC   C4A 2168  17.632   2.898   5.058
  181DOPC   C1B 2169  17.111   2.700   6.434
  181DOPC   D2B 2170  16.931   2.523   6.004
  181DOPC   C3B 2171  17.170   2.448   5.599
  181DOPC   C4B 2172  17.304   2.459   5.123
  182DOPC   NC3 2173  17.290   3.473   7.418
  182DOPC   PO4 2174  17.246   3.107   7.270
  182DOPC   GL1 2175  17.004   3.255   6.941
  182DOPC   GL2 2176  17.105   3.540   6.986
  182DOPC   C1A 2177  17.028   3.192   6.500
  182DOPC   D2A 2178  17.095   3.089   6.018
  182DOPC   C3A 2179  17.230   3.244   5.589
  182DOPC   C4A 2180  17.451   3.351   5.153
  182DOPC   C1B 2181  17.277   3.617   6.587
  182DOPC   D2B 2182  17.411   3.683   6.108
  182DOPC   C3B 2183  17.188   3.735   5.694
  182DOPC   C4B 2184  17.033   3.599   5.238
  183DOPC   NC3 2185  17.307   1.163   7.251
  183DOPC   PO4 2186  17.024   0.968   7.062
  183DOPC   GL1 2187  17.214   1.145   6.724
  183DOPC   GL2 2188  17.494   1.168   6.816
  183DOPC   C1A 2189  17.260   1.291   6.300
  183DOPC   D2A 2190  17.334   1.336   5.803
  183DOPC   C3A 2191  17.215   1.157   5.384
  183DOPC   C4A 2192  17.015   0.735   5.218
  183DOPC   C1B 2193  17.742   1.288   6.448
  183DOPC   D2B 2194  17.916   1.271   5.968
  183DOPC   C3B 2195  17.769   1.431   5.543
  183DOPC   C4B 2196  17.409   1.619   5.254
  184DOPC   NC3 2197  11.996   5.286   7.435
  184DOPC   PO4 2198  11.836   5.622   7.301
  184DOPC   GL1 2199  12.066   5.480   6.965
  184DOPC   GL2 2200  11.853   5.238   6.964
  184DOPC   C1A 2201  12.272   5.479   6.557
  184DOPC   D2A 2202  12.228   5.260   6.092
  184DOPC   C3A 2203  12.028   5.112   5.679
  184DOPC   C4A 2204  11.846   4.966   5.226
  184DOPC   C1B 2205  11.979   5.066   6.562
  184DOPC   D2B 2206  12.116   4.726   6.201
  184DOPC   C3B 2207  11.895   4.630   5.789
  184DOPC   C4B 2208  11.629   4.517   5.376
  185DOPC   NC3 2209   7.313   9.452   7.363
  185DOPC   PO4 2210   7.572   9.149   7.410
  185DOPC   GL1 2211   7.649   9.073   6.989
  185DOPC   GL2 2212   7.755   9.363   6.981
  185DOPC   C1A 2213   7.438   9.133   6.584
  185DOPC   D2A 2214   7.267   9.364   6.170
  185DOPC   C3A 2215   7.384   9.375   5.712
  185DOPC   C4A 2216   7.562   9.341   5.250
  185DOPC   C1B 2217   7.544   9.622   6.668
  185DOPC   D2B 2218   7.281   9.895   6.331
  185DOPC   C3B 2219   7.218   9.857   5.855
  185DOPC   C4B 2220   7.296   9.806   5.361
  186DOPC   NC3 2221   1.545   8.259   7.521
  186DOPC   PO4 2222   1.518   7.979   7.240
  186DOPC   GL1 2223   1.696   8.038   6.866
  186DOPC   GL2 2224   1.698   7.719   6.836
  186DOPC   C1A 2225   1.552   8.301   6.532
  186DOPC   D2A 2226   1.427   8.306   6.045
  186DOPC   C3A 2227   1.577   7.997   5.706
  186DOPC   C4A 2228   1.652   7.732   5.285
  186DOPC   C1B 2229   1.820   7.554   6.432
  186DOPC   D2B 2230   2.005   7.517   5.957
  186DOPC   C3B 2231   2.119   7.693   5.527
  186DOPC   C4B 2232   2.305   7.754   5.060
  187DOPC   NC3 2233   0.231   1.159   7.375
  187DOPC   PO4 2234   0.134   1.498   7.174
  187DOPC   GL1 2235  19.987   1.303   6.817
  187DOPC   GL2 2236   0.166   1.068   6.923
  187DOPC   C1A 2237   0.008   1.402   6.394
  187DOPC   D2A 2238   0.001   1.600   5.927
  187DOPC   C3A 2239   0.273   1.463   5.560
  187DOPC   C4A 2240   0.627   1.294   5.240
  187DOPC   C1B 2241   0.292   0.845   6.573
  187DOPC   D2B 2242   0.330   0.710   6.093
  187DOPC   C3B 2243   0.440   0.892   5.659
  187DOPC   C4B 2244   0.359   0.853   5.166
  188DOPC   NC3 2245   3.539   1.189   7.596
  188DOPC   PO4 2246   3.480   0.964   7.273
  188DOPC   GL1 2247   3.643   1.046   6.868
  188DOPC   GL2 2248   3.385   1.220   6.834
  188DOPC   C1A 2249   3.818   1.076   6.442
  188DOPC   D2A 2250   3.967   1.183   5.966
  188DOPC   C3A 2251   3.768   1.117   5.542
  188DOPC   C4A 2252   3.441   1.163   5.185
  188DOPC   C1B 2253   3.347   1.194   6.399
  188DOPC   D2B 2254   3.490   1.013   5.973
  188DOPC   C3B 2255   3.352   1.342   5.672
  188DOPC   C4B 2256   3.382   1.661   5.289
  189DOPC   NC3 2257  18.205   7.210   7.445
  189DOPC   PO4 2258  18.466   7.242   7.143
  189DOPC   GL1 2259  18.232   7.399   6.864
  189DOPC   GL2 2260  17.951   7.416   6.988
  189DOPC   C1A 2261  18.273   7.182   6.482
  189DOPC   D2A 2262  18.233   7.020   6.017
  189DOPC   C3A 2263  18.137   7.265   5.635
  189DOPC   C4A 2264  18.221   7.527   5.217
  189DOPC   C1B 2265  17.684   7.510   6.625
  189DOPC   D2B 2266  17.438   7.453   6.176
  189DOPC   C3B 2267  17.585   7.328   5.731
  189DOPC   C4B 2268  17.778   7.293   5.263
  190DOPC   NC3 2269   6.739   7.891   7.040
  190DOPC   PO4 2270   6.464   7.598   7.089
  190DOPC   GL1 2271   6.179   7.692   6.806
  190DOPC   GL2 2272   6.316   7.977   6.796
  190DOPC   C1A 2273   6.364   7.597   6.430
  190DOPC   D2A 2274   6.620   7.700   6.020
  190DOPC   C3A 2275   6.572   7.833   5.578
  190DOPC   C4A 2276   6.432   7.934   5.117
  190DOPC   C1B 2277   6.505   8.086   6.390
  190DOPC   D2B 2278   6.594   8.255   5.913
  190DOPC   C3B 2279   6.378   8.302   5.481
  190DOPC   C4B 2280   6.364   8.426   4.984
  191DOPC   NC3 2281  18.253   8.985   7.469
  191DOPC   PO4 2282  17.860   9.062   7.401
  191DOPC   GL1 2283  17.836   8.840   7.021
  191DOPC   GL2 2284  18.141   8.796   7.041
  191DOPC   C1A 2285  17.862   8.989   6.597
  191DOPC   D2A 2286  17.916   9.228   6.137
  191DOPC   C3A 2287  17.889   9.152   5.666
  191DOPC   C4A 2288  17.971   8.952   5.209
  191DOPC   C1B 2289  18.358   8.942   6.661
  191DOPC   D2B 2290  18.427   9.177   6.211
  191DOPC   C3B 2291  18.364   8.996   5.779
  191DOPC   C4B 2292  18.288   8.634   5.446
  192DOPC   NC3 2293  13.419   5.421   7.277
  192DOPC   PO4 2294  13.446   5.739   7.038
  192DOPC   GL1 2295  13.240   5.582   6.665
  192DOPC   GL2 2296  13.511   5.419   6.671
  192DOPC   C1A 2297  13.116   5.500   6.234
  192DOPC   D2A 2298  13.098   5.395   5.742
  192DOPC   C3A 2299  13.135   5.218   5.310
  192DOPC   C4A 2300  13.161   4.989   4.869
  192DOPC   C1B 2301  13.599   5.348   6.230
  192DOPC   D2B 2302  13.623   5.277   5.733
  192DOPC   C3B 2303  13.622   5.041   5.330
  192DOPC   C4B 2304  13.705   4.855   4.870
  193DOPC   NC3 2305  12.752   3.121   7.387
  193DOPC   PO4 2306  13.118   3.190   7.245
  193DOPC   GL1 2307  12.899   3.028   6.920
  193DOPC   GL2 2308  12.817   2.772   7.062
  193DOPC   C1A 2309  12.878   2.977   6.467
  193DOPC   D2A 2310  13.103   2.931   6.016
  193DOPC   C3A 2311  12.884   3.013   5.622
  193DOPC   C4A 2312  12.601   3.020   5.226
  193DOPC   C1B 2313  12.658   2.564   6.685
  193DOPC   D2B 2314  12.524   2.483   6.204
  193DOPC   C3B 2315  12.722   2.547   5.775
  193DOPC   C4B 2316  12.893   2.595   5.303
  194DOPC   NC3 2317  15.605   4.313   7.583
  194DOPC   PO4 2318  15.357   4.126   7.328
  194DOPC   GL1 2319  15.369   4.433   7.009
  194DOPC   GL2 2320  15.618   4.561   7.141
  194DOPC   C1A 2321  15.498   4.395   6.577
  194DOPC   D2A 2322  15.693   4.572   6.132
  194DOPC   C3A 2323  15.666   4.474   5.653
  194DOPC   C4A 2324  15.704   4.210   5.217
  194DOPC   C1B 2325  15.931   4.465   6.812
  194DOPC   D2B 2326  16.054   4.242   6.373
  194DOPC   C3B 2327  16.036   4.224   5.901
  194DOPC   C4B 2328  16.136   4.344   5.430
  195DOPC   NC3 2329   5.886   6.958   7.435
  195DOPC   PO4 2330   5.634   7.059   7.150
  195DOPC   GL1 2331   5.925   6.850   6.948
  195DOPC   GL2 2332   5.976   6.611   7.125
  195DOPC   C1A 2333   6.021   6.808   6.519
  195DOPC   D2A 2334   6.152   6.673   6.046
  195DOPC   C3A 2335   6.003   6.747   5.597
  195DOPC   C4A 2336   5.797   6.801   5.143
  195DOPC   C1B 2337   5.776   6.439   6.765
  195DOPC   D2B 2338   5.741   6.324   6.271
  195DOPC   C3B 2339   5.777   6.317   5.803
  195DOPC   C4B 2340   5.851   6.253   5.310
  196DOPC   NC3 2341   4.166   0.257   7.302
  196DOPC   PO4 2342   4.455   0.086   7.079
  196DOPC   GL1 2343   4.304   0.254   6.708
  196DOPC   GL2 2344   4.251   0.509   6.888
  196DOPC   C1A 2345   4.162   0.288   6.259
  196DOPC   D2A 2346   4.040   0.316   5.749
  196DOPC   C3A 2347   4.065   0.274   5.269
  196DOPC   C4A 2348   4.217   0.298   4.784
  196DOPC   C1B 2349   3.984   0.632   6.572
  196DOPC   D2B 2350   3.924   0.701   6.061
  196DOPC   C3B 2351   4.129   0.782   5.609
  196DOPC   C4B 2352   4.325   0.708   5.139
  197DOPC   NC3 2353   6.336   8.796   7.571
  197DOPC   PO4 2354   6.693   8.806   7.388
  197DOPC   GL1 2355   6.732   8.778   6.970
  197DOPC   GL2 2356   6.783   8.484   6.944
  197DOPC   C1A 2357   6.589   8.955   6.569
  197DOPC   D2A 2358   6.305   9.069   6.155
  197DOPC   C3A 2359   6.431   9.136   5.698
  197DOPC   C4A 2360   6.421   9.269   5.207
  197DOPC   C1B 2361   6.790   8.494   6.502
  197DOPC   D2B 2362   6.680   8.741   6.072
  197DOPC   C3B 2363   6.710   8.693   5.613
  197DOPC   C4B 2364   6.736   8.829   5.149
  198DOPC   NC3 2365   7.853   4.403   7.286
  198DOPC   PO4 2366   7.518   4.557   7.120
  198DOPC   GL1 2367   7.556   4.454   6.699
  198DOPC   GL2 2368   7.857   4.412   6.761
  198DOPC   C1A 2369   7.499   4.458   6.251
  198DOPC   D2A 2370   7.546   4.453   5.745
  198DOPC   C3A 2371   7.833   4.530   5.365
  198DOPC   C4A 2372   8.171   4.526   4.987
  198DOPC   C1B 2373   7.997   4.342   6.350
  198DOPC   D2B 2374   8.034   4.328   5.842
  198DOPC   C3B 2375   8.249   4.216   5.431
  198DOPC   C4B 2376   8.526   4.032   5.048
  199DOPC   NC3 2377   7.178   4.832   7.380
  199DOPC   PO4 2378   7.509   5.050   7.359
  199DOPC   GL1 2379   7.346   4.969   6.946
  199DOPC   GL2 2380   7.182   5.213   7.039
  199DOPC   C1A 2381   7.388   4.927   6.492
  199DOPC   D2A 2382   7.307   4.863   5.986
  199DOPC   C3A 2383   7.491   4.943   5.554
  199DOPC   C4A 2384   7.756   5.027   5.140
  199DOPC   C1B 2385   7.186   5.413   6.648
  199DOPC   D2B 2386   7.228   5.340   6.152
  199DOPC   C3B 2387   7.208   5.350   5.678
  199DOPC   C4B 2388   7.532   5.473   5.314
  200DOPC   NC3 2389   3.963   6.526   7.304
  200DOPC   PO4 2390   3.610   6.674   7.215
  200DOPC   GL1 2391   3.503   6.664   6.808
  200DOPC   GL2 2392   3.420   6.370   6.822
  200DOPC   C1A 2393   3.606   6.813   6.397
  200DOPC   D2A 2394   3.548   7.017   5.945
  200DOPC   C3A 2395   3.493   6.947   5.483
  200DOPC   C4A 2396   3.370   6.917   4.989
  200DOPC   C1B 2397   3.668   6.321   6.467
  200DOPC   D2B 2398   3.974   6.309   6.064
  200DOPC   C3B 2399   3.895   6.479   5.621
  200DOPC   C4B 2400   3.802   6.683   5.166
  201DOPC   NC3 2401   6.431   2.309   7.555
  201DOPC   PO4 2402   6.738   2.490   7.373
  201DOPC   GL1 2403   6.457   2.527   7.037
  201DOPC   GL2 2404   6.358   2.231   7.085
  201DOPC   C1A 2405   6.497   2.424   6.599
  201DOPC   D2A 2406   6.744   2.315   6.170
  201DOPC   C3A 2407   6.516   2.380   5.766
  201DOPC   C4A 2408   6.301   2.436   5.327
  201DOPC   C1B 2409   6.566   1.954   6.765
  201DOPC   D2B 2410   6.684   1.791   6.285
  201DOPC   C3B 2411   6.598   1.882   5.815
  201DOPC   C4B 2412   6.395   1.902   5.344
  202DOPC   NC3 2413  15.690   1.880   7.445
  202DOPC   PO4 2414  16.032   1.788   7.261
  202DOPC   GL1 2415  15.834   1.936   6.909
  202DOPC   GL2 2416  16.019   2.184   6.918
  202DOPC   C1A 2417  15.766   1.838   6.472
  202DOPC   D2A 2418  15.710   1.906   5.970
  202DOPC   C3A 2419  15.745   1.796   5.506
  202DOPC   C4A 2420  15.792   1.547   5.068
  202DOPC   C1B 2421  16.057   2.248   6.481
  202DOPC   D2B 2422  16.073   2.285   5.974
  202DOPC   C3B 2423  16.225   2.108   5.559
  202DOPC   C4B 2424  16.548   2.011   5.182
  203DOPC   NC3 2425   6.697   7.152   7.391
  203DOPC   PO4 2426   6.762   6.795   7.210
  203DOPC   GL1 2427   6.639   6.737   6.827
  203DOPC   GL2 2428   6.345   6.700   6.858
  203DOPC   C1A 2429   6.678   6.623   6.404
  203DOPC   D2A 2430   6.666   6.469   5.929
  203DOPC   C3A 2431   6.700   6.534   5.460
  203DOPC   C4A 2432   6.750   6.490   4.971
  203DOPC   C1B 2433   6.254   6.364   6.544
  203DOPC   D2B 2434   6.217   6.151   6.083
  203DOPC   C3B 2435   6.264   6.316   5.637
  203DOPC   C4B 2436   6.262   6.556   5.179
  204DOPC   NC3 2437  16.624   7.626   7.457
  204DOPC   PO4 2438  16.991   7.709   7.294
  204DOPC   GL1 2439  16.933   7.466   6.965
  204DOPC   GL2 2440  16.666   7.345   7.083
  204DOPC   C1A 2441  16.897   7.443   6.527
  204DOPC   D2A 2442  16.893   7.414   6.037
  204DOPC   C3A 2443  16.888   7.244   5.602
  204DOPC   C4A 2444  16.939   7.029   5.163
  204DOPC   C1B 2445  16.434   7.311   6.707
  204DOPC   D2B 2446  16.427   7.490   6.243
  204DOPC   C3B 2447  16.407   7.363   5.792
  204DOPC   C4B 2448  16.444   7.126   5.359
  205DOPC   NC3 2449  13.385   0.525   7.475
  205DOPC   PO4 2450  13.784   0.493   7.395
  205DOPC   GL1 2451  13.680   0.543   6.961
  205DOPC   GL2 2452  13.427   0.349   7.032
  205DOPC   C1A 2453  13.493   0.643   6.556
  205DOPC   D2A 2454  13.339   0.627   6.069
  205DOPC   C3A 2455  13.455   0.592   5.608
  205DOPC   C4A 2456  13.699   0.578   5.169
  205DOPC   C1B 2457  13.189   0.212   6.654
  205DOPC   D2B 2458  12.989   0.130   6.187
  205DOPC   C3B 2459  13.143   0.163   5.742
  205DOPC   C4B 2460  13.338   0.214   5.283
  206DOPC   NC3 2461   9.054   0.754   7.154
  206DOPC   PO4 2462   9.320   0.470   7.254
  206DOPC   GL1 2463   9.526   0.462   6.851
  206DOPC   GL2 2464   9.342   0.679   6.774
  206DOPC   C1A 2465   9.445   0.281   6.442
  206DOPC   D2A 2466   9.334   0.104   5.979
  206DOPC   C3A 2467   9.237   0.290   5.548
  206DOPC   C4A 2468   9.204   0.500   5.104
  206DOPC   C1B 2469   9.195   0.748   6.371
  206DOPC   D2B 2470   8.884   0.833   5.989
  206DOPC   C3B 2471   8.791   0.571   5.615
  206DOPC   C4B 2472   8.747   0.282   5.214
  207DOPC   NC3 2473  16.130   7.562   7.672
  207DOPC   PO4 2474  16.189   7.410   7.305
  207DOPC   GL1 2475  16.022   7.490   6.914
  207DOPC   GL2 2476  15.754   7.389   7.019
  207DOPC   C1A 2477  15.963   7.430   6.472
  207DOPC   D2A 2478  15.701   7.489   6.046
  207DOPC   C3A 2479  15.886   7.339   5.632
  207DOPC   C4A 2480  15.960   6.896   5.401
  207DOPC   C1B 2481  15.548   7.227   6.653
  207DOPC   D2B 2482  15.309   7.168   6.210
  207DOPC   C3B 2483  15.480   7.067   5.794
  207DOPC   C4B 2484  15.516   7.144   5.313
  208DOPC   NC3 2485   4.883   6.084   7.413
  208DOPC   PO4 2486   4.540   6.079   7.203
  208DOPC   GL1 2487   4.680   6.226   6.848
  208DOPC   GL2 2488   4.951   6.080   6.894
  208DOPC   C1A 2489   4.757   6.282   6.426
  208DOPC   D2A 2490   4.877   6.375   5.947
  208DOPC   C3A 2491   5.078   6.162   5.579
  208DOPC   C4A 2492   5.059   5.850   5.189
  208DOPC   C1B 2493   5.171   6.000   6.490
  208DOPC   D2B 2494   5.349   5.971   6.004
  208DOPC   C3B 2495   5.257   5.676   5.630
  208DOPC   C4B 2496   5.267   5.347   5.240
  209DOPC   NC3 2497  11.223   5.277   7.373
  209DOPC   PO4 2498  11.565   5.065   7.338
  209DOPC   GL1 2499  11.536   4.884   6.932
  209DOPC   GL2 2500  11.357   5.103   6.860
  209DOPC   C1A 2501  11.623   4.729   6.522
  209DOPC   D2A 2502  11.700   4.993   6.086
  209DOPC   C3A 2503  11.528   4.951   5.637
  209DOPC   C4A 2504  11.314   4.868   5.184
  209DOPC   C1B 2505  11.320   5.133   6.408
  209DOPC   D2B 2506  11.279   5.291   5.925
  209DOPC   C3B 2507  11.199   5.286   5.447
  209DOPC   C4B 2508  11.044   5.339   4.970
  210DOPC   NC3 2509  18.748   1.042   7.181
  210DOPC   PO4 2510  18.478   1.356   7.146
  210DOPC   GL1 2511  18.504   1.395   6.717
  210DOPC   GL2 2512  18.582   1.086   6.745
  210DOPC   C1A 2513  18.655   1.434   6.292
  210DOPC   D2A 2514  18.805   1.349   5.809
  210DOPC   C3A 2515  18.753   1.418   5.343
  210DOPC   C4A 2516  18.736   1.449   4.842
  210DOPC   C1B 2517  18.629   0.855   6.369
  210DOPC   D2B 2518  18.544   0.567   5.952
  210DOPC   C3B 2519  18.500   0.776   5.528
  210DOPC   C4B 2520  18.477   1.021   5.095
  211DOPC   NC3 2521  14.922   8.956   7.457
  211DOPC   PO4 2522  14.764   8.686   7.201
  211DOPC   GL1 2523  14.991   8.618   6.828
  211DOPC   GL2 2524  15.090   8.906   6.862
  211DOPC   C1A 2525  15.042   8.550   6.385
  211DOPC   D2A 2526  15.001   8.647   5.899
  211DOPC   C3A 2527  14.977   8.496   5.455
  211DOPC   C4A 2528  14.980   8.525   4.958
  211DOPC   C1B 2529  15.039   9.105   6.465
  211DOPC   D2B 2530  14.944   9.356   6.052
  211DOPC   C3B 2531  14.968   9.124   5.650
  211DOPC   C4B 2532  15.092   8.970   5.210
  212DOPC   NC3 2533  19.028   4.593   7.358
  212DOPC   PO4 2534  18.833   4.334   7.138
  212DOPC   GL1 2535  19.150   4.553   6.888
  212DOPC   GL2 2536  19.350   4.373   7.031
  212DOPC   C1A 2537  19.223   4.631   6.437
  212DOPC   D2A 2538  19.204   4.818   5.966
  212DOPC   C3A 2539  18.935   4.756   5.579
  212DOPC   C4A 2540  18.620   4.432   5.370
  212DOPC   C1B 2541  19.462   4.218   6.644
  212DOPC   D2B 2542  19.458   4.225   6.140
  212DOPC   C3B 2543  19.347   4.397   5.715
  212DOPC   C4B 2544  19.355   4.640   5.284
  213DOPC   NC3 2545   4.586   2.875   7.329
  213DOPC   PO4 2546   4.908   2.704   7.165
  213DOPC   GL1 2547   4.821   2.876   6.791
  213DOPC   GL2 2548   4.555   2.988   6.857
  213DOPC   C1A 2549   4.893   3.152   6.458
  213DOPC   D2A 2550   5.025   3.314   6.011
  213DOPC   C3A 2551   4.702   3.261   5.666
  213DOPC   C4A 2552   4.469   3.165   5.233
  213DOPC   C1B 2553   4.370   3.166   6.463
  213DOPC   D2B 2554   4.125   3.287   6.016
  213DOPC   C3B 2555   4.111   3.396   5.547
  213DOPC   C4B 2556   4.152   3.684   5.132
  214DOPC   NC3 2557  15.806   0.975   7.146
  214DOPC   PO4 2558  16.180   0.990   7.309
  214DOPC   GL1 2559  16.368   1.184   6.975
  214DOPC   GL2 2560  16.141   1.388   6.945
  214DOPC   C1A 2561  16.357   0.964   6.597
  214DOPC   D2A 2562  16.197   0.715   6.194
  214DOPC   C3A 2563  16.142   0.803   5.727
  214DOPC   C4A 2564  16.153   0.971   5.253
  214DOPC   C1B 2565  16.078   1.419   6.487
  214DOPC   D2B 2566  16.022   1.460   5.971
  214DOPC   C3B 2567  15.854   1.281   5.556
  214DOPC   C4B 2568  15.637   0.999   5.198
  215DOPC   NC3 2569  17.391   0.181   7.429
  215DOPC   PO4 2570  17.284   0.222   7.047
  215DOPC   GL1 2571  17.154   0.538   6.774
  215DOPC   GL2 2572  17.386   0.718   6.876
  215DOPC   C1A 2573  17.218   0.446   6.317
  215DOPC   D2A 2574  17.253   0.463   5.795
  215DOPC   C3A 2575  17.241   0.280   5.341
  215DOPC   C4A 2576  17.149   0.062   4.886
  215DOPC   C1B 2577  17.473   0.849   6.456
  215DOPC   D2B 2578  17.555   0.878   5.946
  215DOPC   C3B 2579  17.528   0.758   5.474
  215DOPC   C4B 2580  17.452   0.624   4.988
  216DOPC   NC3 2581   3.086   1.833   7.528
  216DOPC   PO4 2582   2.825   1.566   7.375
  216DOPC   GL1 2583   2.846   1.615   6.959
  216DOPC   GL2 2584   2.804   1.903   6.928
  216DOPC   C1A 2585   2.985   1.486   6.558
  216DOPC   D2A 2586   3.007   1.440   6.047
  216DOPC   C3A 2587   2.943   1.623   5.590
  216DOPC   C4A 2588   2.909   1.821   5.124
  216DOPC   C1B 2589   2.754   1.944   6.474
  216DOPC   D2B 2590   2.824   1.935   5.974
  216DOPC   C3B 2591   2.679   2.074   5.543
  216DOPC   C4B 2592   2.354   2.226   5.197
  217DOPC   NC3 2593   0.680   7.361   7.568
  217DOPC   PO4 2594   0.722   7.167   7.212
  217DOPC   GL1 2595   0.446   7.136   6.869
  217DOPC   GL2 2596   0.373   7.412   6.951
  217DOPC   C1A 2597   0.470   7.055   6.423
  217DOPC   D2A 2598   0.440   6.969   5.923
  217DOPC   C3A 2599   0.540   6.999   5.465
  217DOPC   C4A 2600   0.695   6.899   5.003
  217DOPC   C1B 2601   0.414   7.555   6.547
  217DOPC   D2B 2602   0.406   7.447   6.065
  217DOPC   C3B 2603   0.405   7.582   5.609
  217DOPC   C4B 2604   0.247   7.765   5.174
  218DOPC   NC3 2605  11.550   8.926   7.258
  218DOPC   PO4 2606  11.590   9.304   7.127
  218DOPC   GL1 2607  11.410   9.179   6.788
  218DOPC   GL2 2608  11.343   8.897   6.834
  218DOPC   C1A 2609  11.647   9.073   6.417
  218DOPC   D2A 2610  11.754   8.789   6.017
  218DOPC   C3A 2611  11.519   9.011   5.673
  218DOPC   C4A 2612  11.339   9.201   5.247
  218DOPC   C1B 2613  11.320   8.695   6.431
  218DOPC   D2B 2614  11.249   8.603   5.933
  218DOPC   C3B 2615  11.113   8.757   5.501
  218DOPC   C4B 2616  10.996   8.898   5.043
  219DOPC   NC3 2617  13.465   2.885   7.635
  219DOPC   PO4 2618  13.105   2.753   7.524
  219DOPC   GL1 2619  13.265   2.756   7.150
  219DOPC   GL2 2620  13.547   2.693   7.178
  219DOPC   C1A 2621  13.167   2.667   6.742
  219DOPC   D2A 2622  13.052   2.506   6.285
  219DOPC   C3A 2623  13.237   2.475   5.837
  219DOPC   C4A 2624  13.410   2.652   5.395
  219DOPC   C1B 2625  13.679   2.690   6.735
  219DOPC   D2B 2626  13.579   2.583   6.237
  219DOPC   C3B 2627  13.757   2.395   5.824
  219DOPC   C4B 2628  13.974   2.285   5.374
  220DOPC   NC3 2629   1.172   9.647   7.670
  220DOPC   PO4 2630   1.134   9.821   7.310
  220DOPC   GL1 2631   1.317   9.624   6.993
  220DOPC   GL2 2632   1.059   9.449   7.001
  220DOPC   C1A 2633   1.340   9.664   6.558
  220DOPC   D2A 2634   1.261   9.655   6.072
  220DOPC   C3A 2635   1.476   9.674   5.657
  220DOPC   C4A 2636   1.759   9.722   5.255
  220DOPC   C1B 2637   0.850   9.586   6.622
  220DOPC   D2B 2638   0.714   9.682   6.141
  220DOPC   C3B 2639   0.903   9.621   5.712
  220DOPC   C4B 2640   1.161   9.406   5.341
  221DOPC   NC3 2641  10.448   7.614   7.545
  221DOPC   PO4 2642  10.693   7.417   7.284
  221DOPC   GL1 2643  10.593   7.481   6.887
  221DOPC   GL2 2644  10.296   7.458   6.894
  221DOPC   C1A 2645  10.728   7.560   6.479
  221DOPC   D2A 2646  10.804   7.662   5.985
  221DOPC   C3A 2647  10.659   7.389   5.613
  221DOPC   C4A 2648  10.459   7.228   5.180
  221DOPC   C1B 2649  10.212   7.609   6.476
  221DOPC   D2B 2650  10.312   7.506   5.985
  221DOPC   C3B 2651  10.132   7.290   5.594
  221DOPC   C4B 2652   9.948   7.020   5.225
  222DOPC   NC3 2653  18.300   6.471   7.347
  222DOPC   PO4 2654  18.007   6.756   7.375
  222DOPC   GL1 2655  18.059   6.988   7.029
  222DOPC   GL2 2656  18.300   6.816   6.965
  222DOPC   C1A 2657  17.821   7.022   6.653
  222DOPC   D2A 2658  17.729   7.020   6.143
  222DOPC   C3A 2659  17.831   6.860   5.689
  222DOPC   C4A 2660  17.925   6.619   5.250
  222DOPC   C1B 2661  18.179   6.670   6.553
  222DOPC   D2B 2662  18.028   6.558   6.082
  222DOPC   C3B 2663  18.219   6.491   5.649
  222DOPC   C4B 2664  18.400   6.382   5.189
  223DOPC   NC3 2665  14.738   3.455   7.506
  223DOPC   PO4 2666  15.055   3.689   7.412
  223DOPC   GL1 2667  15.229   3.783   6.999
  223DOPC   GL2 2668  15.287   3.476   6.997
  223DOPC   C1A 2669  15.161   3.872   6.544
  223DOPC   D2A 2670  15.097   3.898   6.039
  223DOPC   C3A 2671  15.001   3.829   5.578
  223DOPC   C4A 2672  14.938   3.784   5.086
  223DOPC   C1B 2673  15.421   3.437   6.571
  223DOPC   D2B 2674  15.517   3.571   6.084
  223DOPC   C3B 2675  15.374   3.459   5.636
  223DOPC   C4B 2676  15.198   3.337   5.177
  224DOPC   NC3 2677  14.837   6.673   7.390
  224DOPC   PO4 2678  15.068   7.004   7.343
  224DOPC   GL1 2679  14.936   6.915   6.980
  224DOPC   GL2 2680  14.943   6.631   6.932
  224DOPC   C1A 2681  14.810   7.125   6.632
  224DOPC   D2A 2682  14.798   7.307   6.188
  224DOPC   C3A 2683  14.966   7.101   5.795
  224DOPC   C4A 2684  15.038   6.914   5.341
  224DOPC   C1B 2685  14.764   6.615   6.525
  224DOPC   D2B 2686  14.651   6.794   6.074
  224DOPC   C3B 2687  14.823   6.597   5.696
  224DOPC   C4B 2688  15.024   6.343   5.317
  225DOPC   NC3 2689  14.407   1.945   7.309
  225DOPC   PO4 2690  14.715   2.207   7.299
  225DOPC   GL1 2691  14.648   2.359   6.887
  225DOPC   GL2 2692  14.438   2.118   6.883
  225DOPC   C1A 2693  14.527   2.295   6.465
  225DOPC   D2A 2694  14.370   2.022   6.058
  225DOPC   C3A 2695  14.413   2.070   5.585
  225DOPC   C4A 2696  14.482   2.132   5.103
  225DOPC   C1B 2697  14.380   1.805   6.560
  225DOPC   D2B 2698  14.397   1.466   6.188
  225DOPC   C3B 2699  14.351   1.593   5.735
  225DOPC   C4B 2700  14.217   1.724   5.271
  226DOPC   NC3 2701   8.801   5.527   7.258
  226DOPC   PO4 2702   9.196   5.415   7.297
  226DOPC   GL1 2703   9.385   5.532   6.877
  226DOPC   GL2 2704   9.119   5.647   6.916
  226DOPC   C1A 2705   9.347   5.469   6.425
  226DOPC   D2A 2706   9.320   5.338   5.935
  226DOPC   C3A 2707   9.398   5.185   5.484
  226DOPC   C4A 2708   9.442   4.976   5.026
  226DOPC   C1B 2709   8.842   5.625   6.597
  226DOPC   D2B 2710   8.887   5.571   6.115
  226DOPC   C3B 2711   9.054   5.701   5.701
  226DOPC   C4B 2712   8.972   5.691   5.226
  227DOPC   NC3 2713  19.838   7.198   7.472
  227DOPC   PO4 2714  20.003   7.184   7.115
  227DOPC   GL1 2715  19.954   7.434   6.789
  227DOPC   GL2 2716  19.663   7.375   6.743
  227DOPC   C1A 2717   0.011   7.253   6.410
  227DOPC   D2A 2718  19.936   7.008   5.990
  227DOPC   C3A 2719   0.058   7.210   5.589
  227DOPC   C4A 2720  19.890   7.376   5.151
  227DOPC   C1B 2721  19.530   7.466   6.324
  227DOPC   D2B 2722  19.420   7.584   5.843
  227DOPC   C3B 2723  19.482   7.568   5.381
  227DOPC   C4B 2724  19.552   7.668   4.896
  228DOPC   NC3 2725   2.069   7.069   7.190
  228DOPC   PO4 2726   2.330   6.804   7.320
  228DOPC   GL1 2727   2.419   6.869   6.869
  228DOPC   GL2 2728   2.483   7.156   6.966
  228DOPC   C1A 2729   2.524   6.815   6.408
  228DOPC   D2A 2730   2.633   6.835   5.905
  228DOPC   C3A 2731   2.695   6.992   5.447
  228DOPC   C4A 2732   2.712   7.401   5.142
  228DOPC   C1B 2733   2.788   7.180   6.639
  228DOPC   D2B 2734   3.031   7.059   6.203
  228DOPC   C3B 2735   3.084   7.185   5.742
  228DOPC   C4B 2736   3.214   7.326   5.271
  229DOPC   NC3 2737  10.894   1.945   7.449
  229DOPC   PO4 2738  11.119   2.288   7.477
  229DOPC   GL1 2739  11.174   2.380   6.998
  229DOPC   GL2 2740  11.139   2.090   7.047
  229DOPC   C1A 2741  11.076   2.308   6.547
  229DOPC   D2A 2742  10.964   2.218   6.052
  229DOPC   C3A 2743  11.141   2.167   5.601
  229DOPC   C4A 2744  11.261   2.261   5.117
  229DOPC   C1B 2745  11.252   1.857   6.698
  229DOPC   D2B 2746  11.452   1.724   6.263
  229DOPC   C3B 2747  11.532   1.892   5.840
  229DOPC   C4B 2748  11.587   1.940   5.354
  230DOPC   NC3 2749  14.317   0.499   7.486
  230DOPC   PO4 2750  14.562   0.801   7.381
  230DOPC   GL1 2751  14.442   0.610   7.010
  230DOPC   GL2 2752  14.140   0.640   7.071
  230DOPC   C1A 2753  14.397   0.511   6.575
  230DOPC   D2A 2754  14.469   0.416   6.085
  230DOPC   C3A 2755  14.527   0.588   5.644
  230DOPC   C4A 2756  14.618   0.787   5.192
  230DOPC   C1B 2757  13.986   0.832   6.688
  230DOPC   D2B 2758  14.020   0.922   6.178
  230DOPC   C3B 2759  13.972   0.643   5.783
  230DOPC   C4B 2760  13.855   0.233   5.498
  231DOPC   NC3 2761  11.904   6.578   7.447
  231DOPC   PO4 2762  12.185   6.326   7.280
  231DOPC   GL1 2763  12.443   6.555   7.010
  231DOPC   GL2 2764  12.193   6.754   6.998
  231DOPC   C1A 2765  12.447   6.611   6.584
  231DOPC   D2A 2766  12.255   6.837   6.176
  231DOPC   C3A 2767  12.222   6.616   5.768
  231DOPC   C4A 2768  12.248   6.345   5.354
  231DOPC   C1B 2769  11.956   6.725   6.585
  231DOPC   D2B 2770  11.807   6.591   6.100
  231DOPC   C3B 2771  11.811   6.321   5.698
  231DOPC   C4B 2772  11.840   5.988   5.326
  232DOPC   NC3 2773   9.163   6.338   7.422
  232DOPC   PO4 2774   9.498   6.357   7.212
  232DOPC   GL1 2775   9.628   6.261   6.828
  232DOPC   GL2 2776   9.861   6.116   6.963
  232DOPC   C1A 2777   9.559   6.259   6.370
  232DOPC   D2A 2778   9.332   6.179   5.909
  232DOPC   C3A 2779   9.350   6.034   5.443
  232DOPC   C4A 2780   9.383   5.977   4.926
  232DOPC   C1B 2781  10.046   6.142   6.570
  232DOPC   D2B 2782  10.016   6.202   6.077
  232DOPC   C3B 2783   9.837   6.105   5.654
  232DOPC   C4B 2784   9.786   5.873   5.218
  233DOPC   NC3 2785  12.441   3.794   7.224
  233DOPC   PO4 2786  12.356   3.422   7.357
  233DOPC   GL1 2787  12.536   3.325   6.998
  233DOPC   GL2 2788  12.787   3.496   7.086
  233DOPC   C1A 2789  12.431   3.415   6.567
  233DOPC   D2A 2790  12.225   3.473   6.096
  233DOPC   C3A 2791  12.368   3.442   5.627
  233DOPC   C4A 2792  12.378   3.478   5.127
  233DOPC   C1B 2793  12.931   3.428   6.690
  233DOPC   D2B 2794  13.053   3.386   6.214
  233DOPC   C3B 2795  13.075   3.476   5.772
  233DOPC   C4B 2796  12.833   3.474   5.361
  234DOPC   NC3 2797  14.656   1.300   7.273
  234DOPC   PO4 2798  14.304   1.438   7.406
  234DOPC   GL1 2799  14.119   1.288   7.001
  234DOPC   GL2 2800  14.306   1.051   7.059
  234DOPC   C1A 2801  14.034   1.332   6.540
  234DOPC   D2A 2802  13.909   1.423   6.042
  234DOPC   C3A 2803  13.929   1.353   5.565
  234DOPC   C4A 2804  13.921   1.336   5.067
  234DOPC   C1B 2805  14.484   1.003   6.658
  234DOPC   D2B 2806  14.538   0.925   6.158
  234DOPC   C3B 2807  14.388   1.083   5.736
  234DOPC   C4B 2808  14.400   1.255   5.265
  235DOPC   NC3 2809   6.278   0.524   7.474
  235DOPC   PO4 2810   6.525   0.715   7.224
  235DOPC   GL1 2811   6.510   0.685   6.803
  235DOPC   GL2 2812   6.716   0.453   6.786
  235DOPC   C1A 2813   6.337   0.712   6.411
  235DOPC   D2A 2814   6.210   0.579   5.961
  235DOPC   C3A 2815   6.488   0.475   5.609
  235DOPC   C4A 2816   6.484   0.491   5.129
  235DOPC   C1B 2817   6.845   0.337   6.363
  235DOPC   D2B 2818   6.998   0.349   5.872
  235DOPC   C3B 2819   6.942   0.396   5.394
  235DOPC   C4B 2820   6.935   0.609   4.932
  236DOPC   NC3 2821   4.438   4.908   7.274
  236DOPC   PO4 2822   4.050   4.802   7.311
  236DOPC   GL1 2823   3.998   4.979   6.880
  236DOPC   GL2 2824   4.278   4.849   6.829
  236DOPC   C1A 2825   3.915   4.987   6.432
  236DOPC   D2A 2826   4.168   5.058   5.992
  236DOPC   C3A 2827   4.093   4.913   5.548
  236DOPC   C4A 2828   3.984   4.645   5.133
  236DOPC   C1B 2829   4.368   4.752   6.390
  236DOPC   D2B 2830   4.388   4.609   5.897
  236DOPC   C3B 2831   4.432   4.236   5.604
  236DOPC   C4B 2832   4.742   4.042   5.270
  237DOPC   NC3 2833  12.896   5.313   7.400
  237DOPC   PO4 2834  12.934   5.651   7.194
  237DOPC   GL1 2835  12.885   5.396   6.885
  237DOPC   GL2 2836  13.147   5.241   6.933
  237DOPC   C1A 2837  12.744   5.259   6.494
  237DOPC   D2A 2838  12.793   5.092   6.022
  237DOPC   C3A 2839  12.633   5.137   5.579
  237DOPC   C4A 2840  12.281   5.312   5.275
  237DOPC   C1B 2841  13.243   5.076   6.515
  237DOPC   D2B 2842  13.311   4.955   6.025
  237DOPC   C3B 2843  13.081   4.803   5.641
  237DOPC   C4B 2844  12.821   4.778   5.219
  238DOPC   NC3 2845   6.697   1.130   7.442
  238DOPC   PO4 2846   6.296   1.194   7.397
  238DOPC   GL1 2847   6.275   1.053   6.995
  238DOPC   GL2 2848   6.583   1.107   6.945
  238DOPC   C1A 2849   6.152   1.149   6.590
  238DOPC   D2A 2850   6.210   1.101   6.092
  238DOPC   C3A 2851   6.442   0.972   5.701
  238DOPC   C4A 2852   6.703   0.942   5.272
  238DOPC   C1B 2853   6.641   1.207   6.490
  238DOPC   D2B 2854   6.690   1.340   5.998
  238DOPC   C3B 2855   6.557   1.439   5.550
  238DOPC   C4B 2856   6.401   1.436   5.080
  239DOPC   NC3 2857   1.258   1.973   7.453
  239DOPC   PO4 2858   1.026   2.296   7.405
  239DOPC   GL1 2859   1.083   2.349   6.965
  239DOPC   GL2 2860   1.141   2.035   6.982
  239DOPC   C1A 2861   1.153   2.521   6.544
  239DOPC   D2A 2862   1.242   2.642   6.050
  239DOPC   C3A 2863   1.144   2.425   5.630
  239DOPC   C4A 2864   1.148   2.166   5.199
  239DOPC   C1B 2865   1.106   2.005   6.535
  239DOPC   D2B 2866   1.233   2.064   6.038
  239DOPC   C3B 2867   1.355   1.904   5.612
  239DOPC   C4B 2868   1.498   1.749   5.151
  240DOPC   NC3 2869   2.887   3.603   7.644
  240DOPC   PO4 2870   2.904   3.261   7.427
  240DOPC   GL1 2871   2.923   3.203   6.945
  240DOPC   GL2 2872   3.218   3.161   7.003
  240DOPC   C1A 2873   3.018   3.229   6.491
  240DOPC   D2A 2874   3.150   3.196   5.993
  240DOPC   C3A 2875   3.131   3.478   5.602
  240DOPC   C4A 2876   3.047   3.810   5.238
  240DOPC   C1B 2877   3.477   3.052   6.647
  240DOPC   D2B 2878   3.678   3.047   6.176
  240DOPC   C3B 2879   3.626   3.325   5.783
  240DOPC   C4B 2880   3.636   3.609   5.361
  241DOPC   NC3 2881  13.405   3.949   7.461
  241DOPC   PO4 2882  13.212   3.708   7.216
  241DOPC   GL1 2883  13.393   3.883   6.871
  241DOPC   GL2 2884  13.589   4.057   7.015
  241DOPC   C1A 2885  13.265   4.101   6.481
  241DOPC   D2A 2886  13.214   4.401   6.073
  241DOPC   C3A 2887  13.370   4.314   5.634
  241DOPC   C4A 2888  13.614   4.153   5.233
  241DOPC   C1B 2889  13.668   4.353   6.681
  241DOPC   D2B 2890  13.659   4.653   6.268
  241DOPC   C3B 2891  13.729   4.664   5.790
  241DOPC   C4B 2892  13.886   4.607   5.315
  242DOPC   NC3 2893   9.609   7.137   7.375
  242DOPC   PO4 2894   9.238   7.252   7.256
  242DOPC   GL1 2895   9.332   7.114   6.822
  242DOPC   GL2 2896   9.536   7.330   6.892
  242DOPC   C1A 2897   9.602   7.093   6.456
  242DOPC   D2A 2898   9.873   7.180   6.048
  242DOPC   C3A 2899   9.655   7.053   5.656
  242DOPC   C4A 2900   9.421   6.920   5.241
  242DOPC   C1B 2901   9.693   7.591   6.558
  242DOPC   D2B 2902   9.862   7.702   6.095
  242DOPC   C3B 2903   9.705   7.568   5.676
  242DOPC   C4B 2904   9.573   7.390   5.229
  243DOPC   NC3 2905   3.658   5.120   7.432
  243DOPC   PO4 2906   3.282   5.123   7.287
  243DOPC   GL1 2907   3.411   5.218   6.887
  243DOPC   GL2 2908   3.690   5.294   6.987
  243DOPC   C1A 2909   3.414   5.175   6.435
  243DOPC   D2A 2910   3.176   5.008   6.018
  243DOPC   C3A 2911   3.312   4.933   5.575
  243DOPC   C4A 2912   3.462   4.803   5.126
  243DOPC   C1B 2913   3.820   5.454   6.597
  243DOPC   D2B 2914   3.823   5.410   6.094
  243DOPC   C3B 2915   3.737   5.319   5.637
  243DOPC   C4B 2916   3.824   5.157   5.175
  244DOPC   NC3 2917   7.344   4.100   7.259
  244DOPC   PO4 2918   7.044   4.345   7.357
  244DOPC   GL1 2919   7.064   4.592   6.964
  244DOPC   GL2 2920   7.185   4.307   6.888
  244DOPC   C1A 2921   7.023   4.558   6.521
  244DOPC   D2A 2922   7.016   4.436   6.030
  244DOPC   C3A 2923   7.086   4.535   5.565
  244DOPC   C4A 2924   7.368   4.643   5.162
  244DOPC   C1B 2925   7.258   4.091   6.502
  244DOPC   D2B 2926   7.234   3.926   6.034
  244DOPC   C3B 2927   7.303   4.027   5.585
  244DOPC   C4B 2928   7.521   4.144   5.160
  245DOPC   NC3 2929  17.430   8.888   7.621
  245DOPC   PO4 2930  17.437   8.700   7.269
  245DOPC   GL1 2931  17.412   8.882   6.883
  245DOPC   GL2 2932  17.192   9.086   6.970
  245DOPC   C1A 2933  17.431   8.789   6.439
  245DOPC   D2A 2934  17.502   8.955   5.972
  245DOPC   C3A 2935  17.506   8.825   5.527
  245DOPC   C4A 2936  17.529   8.713   5.058
  245DOPC   C1B 2937  17.029   9.072   6.552
  245DOPC   D2B 2938  17.002   8.887   6.086
  245DOPC   C3B 2939  17.063   9.054   5.643
  245DOPC   C4B 2940  17.059   9.327   5.215
  246DOPC   NC3 2941   5.978   7.452   7.179
  246DOPC   PO4 2942   6.234   7.142   7.119
  246DOPC   GL1 2943   6.150   7.250   6.696
  246DOPC   GL2 2944   5.861   7.238   6.763
  246DOPC   C1A 2945   6.136   7.193   6.234
  246DOPC   D2A 2946   5.897   7.195   5.805
  246DOPC   C3A 2947   6.007   7.218   5.353
  246DOPC   C4A 2948   6.194   7.182   4.894
  246DOPC   C1B 2949   5.623   7.124   6.390
  246DOPC   D2B 2950   5.415   7.284   5.942
  246DOPC   C3B 2951   5.531   7.380   5.479
  246DOPC   C4B 2952   5.660   7.292   4.997
  247DOPC   NC3 2953   0.289   7.981   7.397
  247DOPC   PO4 2954   0.201   8.311   7.189
  247DOPC   GL1 2955   0.412   8.248   6.849
  247DOPC   GL2 2956   0.629   8.125   7.018
  247DOPC   C1A 2957   0.342   8.057   6.451
  247DOPC   D2A 2958   0.235   7.918   5.982
  247DOPC   C3A 2959   0.239   8.132   5.561
  247DOPC   C4A 2960   0.267   8.292   5.096
  247DOPC   C1B 2961   0.781   7.907   6.674
  247DOPC   D2B 2962   0.739   7.828   6.175
  247DOPC   C3B 2963   0.711   7.973   5.725
  247DOPC   C4B 2964   0.726   8.071   5.236
  248DOPC   NC3 2965  16.063   5.440   7.324
  248DOPC   PO4 2966  15.853   5.552   7.007
  248DOPC   GL1 2967  16.261   5.487   6.874
  248DOPC   GL2 2968  16.285   5.797   6.897
  248DOPC   C1A 2969  16.236   5.337   6.455
  248DOPC   D2A 2970  16.195   5.202   5.975
  248DOPC   C3A 2971  15.979   5.402   5.611
  248DOPC   C4A 2972  15.750   5.574   5.200
  248DOPC   C1B 2973  16.186   5.858   6.456
  248DOPC   D2B 2974  16.158   5.785   5.960
  248DOPC   C3B 2975  15.988   5.934   5.541
  248DOPC   C4B 2976  15.652   6.158   5.241
  249DOPC   NC3 2977   2.481   3.524   7.279
  249DOPC   PO4 2978   2.126   3.380   7.149
  249DOPC   GL1 2979   2.277   3.172   6.784
  249DOPC   GL2 2980   2.501   3.386   6.818
  249DOPC   C1A 2981   2.554   3.036   6.454
  249DOPC   D2A 2982   2.771   2.833   6.051
  249DOPC   C3A 2983   2.716   3.083   5.654
  249DOPC   C4A 2984   2.723   3.403   5.274
  249DOPC   C1B 2985   2.613   3.549   6.417
  249DOPC   D2B 2986   2.740   3.528   5.937
  249DOPC   C3B 2987   2.679   3.843   5.600
  249DOPC   C4B 2988   2.762   4.222   5.287
  250DOPC   NC3 2989   8.734   6.358   7.071
  250DOPC   PO4 2990   8.943   6.016   7.120
  250DOPC   GL1 2991   9.247   6.045   6.792
  250DOPC   GL2 2992   9.178   6.345   6.864
  250DOPC   C1A 2993   9.139   5.963   6.351
  250DOPC   D2A 2994   8.826   6.073   5.951
  250DOPC   C3A 2995   8.672   6.016   5.494
  250DOPC   C4A 2996   8.528   5.919   5.017
  250DOPC   C1B 2997   8.966   6.424   6.477
  250DOPC   D2B 2998   8.895   6.587   6.005
  250DOPC   C3B 2999   8.988   6.406   5.573
  250DOPC   C4B 3000   8.968   6.198   5.115
  251DOPC   NC3 3001  10.636   0.583   7.212
  251DOPC   PO4 3002  10.995   0.512   7.036
  251DOPC   GL1 3003  10.910   0.163   6.792
  251DOPC   GL2 3004  10.650   0.160   6.958
  251DOPC   C1A 3005  10.721   0.214   6.385
  251DOPC   D2A 3006  10.528   0.247   5.919
  251DOPC   C3A 3007  10.593   0.430   5.487
  251DOPC   C4A 3008  10.540   0.531   5.002
  251DOPC   C1B 3009  10.414   0.469   6.713
  251DOPC   D2B 3010  10.206   0.633   6.278
  251DOPC   C3B 3011  10.114   0.564   5.814
  251DOPC   C4B 3012  10.106   0.591   5.315
  252DOPC   NC3 3013   8.178   1.791   7.670
  252DOPC   PO4 3014   8.411   1.853   7.352
  252DOPC   GL1 3015   8.433   1.810   6.909
  252DOPC   GL2 3016   8.117   1.785   6.905
  252DOPC   C1A 3017   8.357   1.995   6.521
  252DOPC   D2A 3018   8.138   2.106   6.081
  252DOPC   C3A 3019   8.333   2.011   5.657
  252DOPC   C4A 3020   8.469   2.075   5.179
  252DOPC   C1B 3021   7.856   1.883   6.519
  252DOPC   D2B 3022   7.624   2.010   6.082
  252DOPC   C3B 3023   7.829   1.923   5.661
  252DOPC   C4B 3024   8.096   1.735   5.278
  253DOPC   NC3 3025   2.504   5.937   7.343
  253DOPC   PO4 3026   2.822   6.136   7.213
  253DOPC   GL1 3027   2.658   6.007   6.868
  253DOPC   GL2 3028   2.582   5.718   6.937
  253DOPC   C1A 3029   2.768   5.973   6.444
  253DOPC   D2A 3030   2.740   5.868   5.958
  253DOPC   C3A 3031   2.992   5.925   5.568
  253DOPC   C4A 3032   3.189   6.129   5.164
  253DOPC   C1B 3033   2.555   5.519   6.536
  253DOPC   D2B 3034   2.582   5.348   6.048
  253DOPC   C3B 3035   2.605   5.537   5.602
  253DOPC   C4B 3036   2.587   5.885   5.235
  254DOPC   NC3 3037  11.955   3.793   7.407
  254DOPC   PO4 3038  11.816   3.425   7.373
  254DOPC   GL1 3039  12.046   3.319   7.019
  254DOPC   GL2 3040  12.122   3.591   6.978
  254DOPC   C1A 3041  11.921   3.279   6.592
  254DOPC   D2A 3042  11.734   3.305   6.127
  254DOPC   C3A 3043  11.907   3.232   5.694
  254DOPC   C4A 3044  12.093   3.038   5.265
  254DOPC   C1B 3045  12.060   3.765   6.577
  254DOPC   D2B 3046  11.931   3.922   6.117
  254DOPC   C3B 3047  11.943   3.753   5.674
  254DOPC   C4B 3048  11.896   3.513   5.243
  255DOPC   NC3 3049   7.967   8.853   7.406
  255DOPC   PO4 3050   7.703   8.635   7.198
  255DOPC   GL1 3051   8.003   8.597   6.872
  255DOPC   GL2 3052   8.063   8.879   6.947
  255DOPC   C1A 3053   8.238   8.659   6.498
  255DOPC   D2A 3054   8.427   8.715   6.026
  255DOPC   C3A 3055   8.267   8.757   5.573
  255DOPC   C4A 3056   8.170   8.692   5.095
  255DOPC   C1B 3057   7.929   9.122   6.610
  255DOPC   D2B 3058   7.767   9.183   6.139
  255DOPC   C3B 3059   7.796   9.052   5.681
  255DOPC   C4B 3060   8.056   9.156   5.272
  256DOPC   NC3 3061  16.649   1.234   7.357
  256DOPC   PO4 3062  16.503   1.573   7.202
  256DOPC   GL1 3063  16.703   1.629   6.837
  256DOPC   GL2 3064  16.789   1.324   6.864
  256DOPC   C1A 3065  16.571   1.524   6.427
  256DOPC   D2A 3066  16.478   1.165   6.083
  256DOPC   C3A 3067  16.372   1.260   5.637
  256DOPC   C4A 3068  16.224   1.631   5.346
  256DOPC   C1B 3069  16.830   1.091   6.470
  256DOPC   D2B 3070  17.053   0.878   6.081
  256DOPC   C3B 3071  16.851   1.085   5.717
  256DOPC   C4B 3072  16.695   1.151   5.254
  257DOPC   NC3 3073   3.311   2.955   7.413
  257DOPC   PO4 3074   3.005   2.790   7.203
  257DOPC   GL1 3075   3.061   2.824   6.727
  257DOPC   GL2 3076   3.285   2.630   6.820
  257DOPC   C1A 3077   3.230   2.773   6.294
  257DOPC   D2A 3078   3.468   2.733   5.835
  257DOPC   C3A 3079   3.776   2.923   5.511
  257DOPC   C4A 3080   3.976   3.137   5.107
  257DOPC   C1B 3081   3.479   2.337   6.527
  257DOPC   D2B 3082   3.710   2.021   6.194
  257DOPC   C3B 3083   3.616   2.206   5.769
  257DOPC   C4B 3084   3.513   2.491   5.370
  258DOPC   NC3 3085   4.347   2.401   7.709
  258DOPC   PO4 3086   4.397   2.425   7.309
  258DOPC   GL1 3087   4.418   2.269   6.887
  258DOPC   GL2 3088   4.667   2.454   6.851
  258DOPC   C1A 3089   4.130   2.336   6.526
  258DOPC   D2A 3090   3.819   2.517   6.160
  258DOPC   C3A 3091   3.999   2.515   5.720
  258DOPC   C4A 3092   3.980   2.241   5.301
  258DOPC   C1B 3093   4.511   2.677   6.506
  258DOPC   D2B 3094   4.229   2.805   6.125
  258DOPC   C3B 3095   4.303   2.919   5.685
  258DOPC   C4B 3096   4.217   2.710   5.261
  259DOPC   NC3 3097  14.126   3.347   7.339
  259DOPC   PO4 3098  14.185   3.017   7.124
  259DOPC   GL1 3099  13.910   3.278   6.881
  259DOPC   GL2 3100  14.152   3.488   6.896
  259DOPC   C1A 3101  13.819   3.381   6.457
  259DOPC   D2A 3102  13.840   3.629   6.013
  259DOPC   C3A 3103  13.865   3.359   5.625
  259DOPC   C4A 3104  13.858   2.952   5.327
  259DOPC   C1B 3105  14.208   3.703   6.495
  259DOPC   D2B 3106  14.219   3.969   6.057
  259DOPC   C3B 3107  14.334   3.857   5.605
  259DOPC   C4B 3108  14.422   3.764   5.121
  260DOPC   NC3 3109  11.554   2.248   7.243
  260DOPC   PO4 3110  11.715   2.579   7.399
  260DOPC   GL1 3111  12.024   2.578   7.067
  260DOPC   GL2 3112  12.018   2.280   7.120
  260DOPC   C1A 3113  12.076   2.521   6.613
  260DOPC   D2A 3114  11.994   2.294   6.154
  260DOPC   C3A 3115  11.806   2.313   5.701
  260DOPC   C4A 3116  11.746   2.409   5.198
  260DOPC   C1B 3117  11.986   2.033   6.748
  260DOPC   D2B 3118  11.970   1.780   6.316
  260DOPC   C3B 3119  12.038   1.843   5.851
  260DOPC   C4B 3120  12.120   1.945   5.370
  261DOPC   NC3 3121   5.020   0.815   7.378
  261DOPC   PO4 3122   5.371   0.755   7.197
  261DOPC   GL1 3123   5.159   0.953   6.928
  261DOPC   GL2 3124   5.031   1.192   7.085
  261DOPC   C1A 3125   5.043   0.900   6.505
  261DOPC   D2A 3126   4.938   1.024   6.029
  261DOPC   C3A 3127   5.156   1.158   5.629
  261DOPC   C4A 3128   5.275   1.130   5.152
  261DOPC   C1B 3129   4.796   1.305   6.715
  261DOPC   D2B 3130   4.646   1.407   6.237
  261DOPC   C3B 3131   4.740   1.442   5.759
  261DOPC   C4B 3132   4.901   1.467   5.286
  262DOPC   NC3 3133   4.598   1.994   7.504
  262DOPC   PO4 3134   4.798   2.122   7.180
  262DOPC   GL1 3135   4.782   2.027   6.791
  262DOPC   GL2 3136   4.552   1.848   6.747
  262DOPC   C1A 3137   4.726   2.231   6.413
  262DOPC   D2A 3138   4.516   2.393   5.989
  262DOPC   C3A 3139   4.455   2.338   5.524
  262DOPC   C4A 3140   4.441   2.299   5.025
  262DOPC   C1B 3141   4.354   1.911   6.323
  262DOPC   D2B 3142   4.138   2.051   5.874
  262DOPC   C3B 3143   4.274   1.841   5.461
  262DOPC   C4B 3144   4.418   1.540   5.073
  263DOPC   NC3 3145   6.831   2.989   7.470
  263DOPC   PO4 3146   7.046   3.216   7.225
  263DOPC   GL1 3147   7.063   3.198   6.780
  263DOPC   GL2 3148   7.201   2.928   6.842
  263DOPC   C1A 3149   7.166   3.164   6.346
  263DOPC   D2A 3150   7.394   2.908   5.957
  263DOPC   C3A 3151   7.288   2.840   5.498
  263DOPC   C4A 3152   7.198   2.884   5.007
  263DOPC   C1B 3153   7.441   2.752   6.498
  263DOPC   D2B 3154   7.770   2.503   6.192
  263DOPC   C3B 3155   7.699   2.471   5.722
  263DOPC   C4B 3156   7.632   2.563   5.227
  264DOPC   NC3 3157   5.833   2.814   7.455
  264DOPC   PO4 3158   6.023   2.478   7.338
  264DOPC   GL1 3159   6.044   2.646   6.966
  264DOPC   GL2 3160   6.016   2.933   7.032
  264DOPC   C1A 3161   5.961   2.524   6.544
  264DOPC   D2A 3162   5.871   2.381   6.065
  264DOPC   C3A 3163   5.854   2.488   5.605
  264DOPC   C4A 3164   5.938   2.788   5.226
  264DOPC   C1B 3165   5.821   3.006   6.632
  264DOPC   D2B 3166   5.817   2.890   6.129
  264DOPC   C3B 3167   5.714   2.985   5.663
  264DOPC   C4B 3168   5.539   3.101   5.199
  265DOPC   NC3 3169  17.477   5.024   7.362
  265DOPC   PO4 3170  17.456   5.149   6.978
  265DOPC   GL1 3171  17.450   4.759   6.724
  265DOPC   GL2 3172  17.734   4.731   6.829
  265DOPC   C1A 3173  17.604   4.600   6.325
  265DOPC   D2A 3174  17.736   4.496   5.846
  265DOPC   C3A 3175  17.853   4.861   5.564
  265DOPC   C4A 3176  18.057   5.277   5.373
  265DOPC   C1B 3177  18.027   4.838   6.483
  265DOPC   D2B 3178  18.341   4.916   6.072
  265DOPC   C3B 3179  18.462   5.023   5.611
  265DOPC   C4B 3180  18.508   5.153   5.121
  266DOPC   NC3 3181   9.141   1.973   7.537
  266DOPC   PO4 3182   9.237   1.738   7.229
  266DOPC   GL1 3183   9.176   1.895   6.844
  266DOPC   GL2 3184   8.923   1.690   6.832
  266DOPC   C1A 3185   9.216   2.056   6.433
  266DOPC   D2A 3186   9.138   2.188   5.953
  266DOPC   C3A 3187   8.840   2.205   5.584
  266DOPC   C4A 3188   8.882   2.353   5.122
  266DOPC   C1B 3189   8.795   1.709   6.395
  266DOPC   D2B 3190   8.745   1.820   5.899
  266DOPC   C3B 3191   8.662   1.684   5.442
  266DOPC   C4B 3192   8.544   1.608   4.960
  267DOPC   NC3 3193   1.625   7.487   7.261
  267DOPC   PO4 3194   1.575   7.088   7.251
  267DOPC   GL1 3195   1.623   7.142   6.835
  267DOPC   GL2 3196   1.869   7.311   6.854
  267DOPC   C1A 3197   1.762   7.020   6.439
  267DOPC   D2A 3198   2.118   7.020   6.092
  267DOPC   C3A 3199   1.947   7.081   5.666
  267DOPC   C4A 3200   1.800   7.040   5.207
  267DOPC   C1B 3201   2.219   7.219   6.572
  267DOPC   D2B 3202   2.553   7.270   6.190
  267DOPC   C3B 3203   2.418   7.297   5.739
  267DOPC   C4B 3204   2.245   7.271   5.274
  268DOPC   NC3 3205  14.426   9.074   7.248
  268DOPC   PO4 3206  14.752   9.198   7.049
  268DOPC   GL1 3207  14.679   8.916   6.696
  268DOPC   GL2 3208  14.436   8.819   6.846
  268DOPC   C1A 3209  14.631   8.847   6.238
  268DOPC   D2A 3210  14.529   8.695   5.746
  268DOPC   C3A 3211  14.594   8.829   5.296
  268DOPC   C4A 3212  14.662   9.306   5.165
  268DOPC   C1B 3213  14.179   8.659   6.507
  268DOPC   D2B 3214  14.097   8.629   6.012
  268DOPC   C3B 3215  13.946   8.832   5.599
  268DOPC   C4B 3216  13.807   9.113   5.200
  269DOPC   NC3 3217   1.118   9.057   7.434
  269DOPC   PO4 3218   1.413   9.198   7.194
  269DOPC   GL1 3219   1.414   8.896   6.846
  269DOPC   GL2 3220   1.145   8.835   7.000
  269DOPC   C1A 3221   1.306   8.776   6.419
  269DOPC   D2A 3222   1.154   8.746   5.947
  269DOPC   C3A 3223   1.344   8.802   5.517
  269DOPC   C4A 3224   1.673   8.681   5.145
  269DOPC   C1B 3225   1.020   9.106   6.671
  269DOPC   D2B 3226   0.997   9.227   6.179
  269DOPC   C3B 3227   0.907   9.122   5.718
  269DOPC   C4B 3228   0.835   8.998   5.243
  270DOPC   NC3 3229   9.772   3.807   7.442
  270DOPC   PO4 3230  10.168   3.822   7.353
  270DOPC   GL1 3231  10.195   3.796   6.888
  270DOPC   GL2 3232   9.910   3.944   6.946
  270DOPC   C1A 3233  10.012   3.704   6.473
  270DOPC   D2A 3234   9.625   3.700   6.140
  270DOPC   C3A 3235   9.617   3.814   5.685
  270DOPC   C4A 3236   9.807   4.037   5.283
  270DOPC   C1B 3237   9.642   4.031   6.587
  270DOPC   D2B 3238   9.509   4.210   6.133
  270DOPC   C3B 3239   9.545   4.325   5.671
  270DOPC   C4B 3240   9.520   4.476   5.198
  271DOPC   NC3 3241   0.371   4.780   7.264
  271DOPC   PO4 3242   0.159   5.035   7.496
  271DOPC   GL1 3243  19.945   4.947   7.131
  271DOPC   GL2 3244   0.167   5.169   7.050
  271DOPC   C1A 3245  19.995   4.868   6.713
  271DOPC   D2A 3246   0.128   4.903   6.230
  271DOPC   C3A 3247   0.207   4.810   5.764
  271DOPC   C4A 3248   0.246   4.641   5.293
  271DOPC   C1B 3249   0.395   5.182   6.665
  271DOPC   D2B 3250   0.449   5.320   6.185
  271DOPC   C3B 3251   0.595   5.158   5.773
  271DOPC   C4B 3252   0.405   5.123   5.320
  272DOPC   NC3 3253   4.852   8.166   7.190
  272DOPC   PO4 3254   4.648   8.498   7.260
  272DOPC   GL1 3255   4.570   8.449   6.867
  272DOPC   GL2 3256   4.449   8.178   6.866
  272DOPC   C1A 3257   4.617   8.464   6.446
  272DOPC   D2A 3258   4.516   8.259   6.006
  272DOPC   C3A 3259   4.466   8.209   5.552
  272DOPC   C4A 3260   4.547   8.004   5.123
  272DOPC   C1B 3261   4.306   8.039   6.444
  272DOPC   D2B 3262   4.034   7.993   6.011
  272DOPC   C3B 3263   4.061   7.828   5.566
  272DOPC   C4B 3264   4.079   7.824   5.067
  273DOPC   NC3 3265  19.411   7.872   7.303
  273DOPC   PO4 3266  19.385   7.564   7.050
  273DOPC   GL1 3267  19.210   7.616   6.649
  273DOPC   GL2 3268  19.070   7.865   6.742
  273DOPC   C1A 3269  19.072   7.642   6.232
  273DOPC   D2A 3270  19.200   8.024   5.958
  273DOPC   C3A 3271  19.017   7.810   5.590
  273DOPC   C4A 3272  18.658   7.764   5.268
  273DOPC   C1B 3273  18.939   8.123   6.379
  273DOPC   D2B 3274  18.839   8.364   5.923
  273DOPC   C3B 3275  18.730   8.272   5.466
  273DOPC   C4B 3276  18.315   8.177   5.197
  274DOPC   NC3 3277  19.821   8.575   7.404
  274DOPC   PO4 3278  19.691   8.275   7.161
  274DOPC   GL1 3279  19.941   8.220   6.797
  274DOPC   GL2 3280  19.996   8.530   6.817
  274DOPC   C1A 3281  19.884   8.276   6.368
  274DOPC   D2A 3282  19.767   8.517   5.935
  274DOPC   C3A 3283  19.772   8.461   5.468
  274DOPC   C4A 3284  19.817   8.514   4.987
  274DOPC   C1B 3285  19.928   8.784   6.426
  274DOPC   D2B 3286  19.975   9.018   5.975
  274DOPC   C3B 3287  19.832   8.968   5.528
  274DOPC   C4B 3288  19.463   8.838   5.224
  275DOPC   NC3 3289  16.491   2.019   7.446
  275DOPC   PO4 3290  16.858   1.927   7.297
  275DOPC   GL1 3291  16.621   2.119   7.008
  275DOPC   GL2 3292  16.822   2.327   6.990
  275DOPC   C1A 3293  16.445   1.976   6.641
  275DOPC   D2A 3294  16.236   1.858   6.206
  275DOPC   C3A 3295  16.465   1.723   5.825
  275DOPC   C4A 3296  16.757   1.613   5.443
  275DOPC   C1B 3297  16.860   2.273   6.558
  275DOPC   D2B 3298  16.743   2.039   6.125
  275DOPC   C3B 3299  16.755   2.131   5.656
  275DOPC   C4B 3300  16.768   2.470   5.279
  276DOPC   NC3 3301  14.128   5.505   7.451
  276DOPC   PO4 3302  13.990   5.651   7.103
  276DOPC   GL1 3303  14.366   5.782   6.889
  276DOPC   GL2 3304  14.253   6.055   6.912
  276DOPC   C1A 3305  14.505   5.730   6.455
  276DOPC   D2A 3306  14.559   5.657   5.952
  276DOPC   C3A 3307  14.314   5.535   5.560
  276DOPC   C4A 3308  13.907   5.543   5.261
  276DOPC   C1B 3309  14.146   6.092   6.492
  276DOPC   D2B 3310  14.173   6.004   5.996
  276DOPC   C3B 3311  14.194   6.042   5.527
  276DOPC   C4B 3312  14.213   6.007   5.040
  277DOPC   NC3 3313  14.549   8.310   7.459
  277DOPC   PO4 3314  14.455   7.966   7.266
  277DOPC   GL1 3315  14.339   8.137   6.912
  277DOPC   GL2 3316  14.429   8.411   7.004
  277DOPC   C1A 3317  14.271   8.111   6.470
  277DOPC   D2A 3318  14.154   8.113   5.982
  277DOPC   C3A 3319  14.165   8.365   5.581
  277DOPC   C4A 3320  14.094   8.594   5.145
  277DOPC   C1B 3321  14.616   8.443   6.613
  277DOPC   D2B 3322  14.601   8.354   6.131
  277DOPC   C3B 3323  14.607   8.171   5.709
  277DOPC   C4B 3324  14.551   8.265   5.220
  278DOPC   NC3 3325  18.809   9.722   7.231
  278DOPC   PO4 3326  19.170   9.883   7.174
  278DOPC   GL1 3327  19.038   9.970   6.832
  278DOPC   GL2 3328  18.786   9.822   6.781
  278DOPC   C1A 3329  19.154   0.021   6.429
  278DOPC   D2A 3330  19.251   9.793   6.016
  278DOPC   C3A 3331  19.264   9.523   5.644
  278DOPC   C4A 3332  19.016   9.791   5.329
  278DOPC   C1B 3333  18.826   9.618   6.395
  278DOPC   D2B 3334  18.956   9.355   5.999
  278DOPC   C3B 3335  18.728   9.411   5.590
  278DOPC   C4B 3336  18.495   9.829   5.452
  279DOPC   NC3 3337   0.785   1.828   7.270
  279DOPC   PO4 3338   0.652   1.452   7.199
  279DOPC   GL1 3339   0.477   1.392   6.799
  279DOPC   GL2 3340   0.305   1.641   6.755
  279DOPC   C1A 3341   0.690   1.583   6.460
  279DOPC   D2A 3342   0.745   1.969   6.130
  279DOPC   C3A 3343   0.845   1.966   5.660
  279DOPC   C4A 3344   1.007   1.670   5.282
  279DOPC   C1B 3345   0.271   1.850   6.315
  279DOPC   D2B 3346   0.332   2.032   5.819
  279DOPC   C3B 3347   0.307   2.234   5.366
  279DOPC   C4B 3348   0.230   2.441   4.904
  280DOPC   NC3 3349   6.548   9.521   7.699
  280DOPC   PO4 3350   6.814   9.350   7.441
  280DOPC   GL1 3351   6.965   9.453   7.031
  280DOPC   GL2 3352   6.985   9.743   7.102
  280DOPC   C1A 3353   6.944   9.367   6.585
  280DOPC   D2A 3354   6.771   9.271   6.124
  280DOPC   C3A 3355   6.856   9.446   5.695
  280DOPC   C4A 3356   6.849   9.573   5.213
  280DOPC   C1B 3357   6.890   9.892   6.684
  280DOPC   D2B 3358   6.804   9.807   6.194
  280DOPC   C3B 3359   6.706   9.945   5.755
  280DOPC   C4B 3360   6.556   0.011   5.289
  281DOPC   NC3 3361  15.074   0.490   7.432
  281DOPC   PO4 3362  14.755   0.321   7.263
  281DOPC   GL1 3363  14.907   0.595   6.958
  281DOPC   GL2 3364  15.191   0.458   6.968
  281DOPC   C1A 3365  14.888   0.612   6.517
  281DOPC   D2A 3366  14.992   0.319   6.116
  281DOPC   C3A 3367  14.976   0.302   5.653
  281DOPC   C4A 3368  14.933   0.358   5.166
  281DOPC   C1B 3369  15.281   0.269   6.552
  281DOPC   D2B 3370  15.454   0.084   6.086
  281DOPC   C3B 3371  15.433   0.064   5.593
  281DOPC   C4B 3372  15.274   9.965   5.123
  282DOPC   NC3 3373   1.089   4.147   7.426
  282DOPC   PO4 3374   0.809   3.973   7.193
  282DOPC   GL1 3375   1.070   4.134   6.927
  282DOPC   GL2 3376   0.960   4.397   6.838
  282DOPC   C1A 3377   1.205   4.027   6.532
  282DOPC   D2A 3378   1.120   4.116   6.061
  282DOPC   C3A 3379   1.201   4.187   5.619
  282DOPC   C4A 3380   1.319   4.232   5.159
  282DOPC   C1B 3381   0.980   4.497   6.391
  282DOPC   D2B 3382   0.860   4.529   5.889
  282DOPC   C3B 3383   0.908   4.560   5.408
  282DOPC   C4B 3384   1.014   4.593   4.917
  283DOPC   NC3 3385  17.248   4.279   7.348
  283DOPC   PO4 3386  17.322   3.928   7.173
  283DOPC   GL1 3387  17.119   4.003   6.798
  283DOPC   GL2 3388  17.020   4.283   6.915
  283DOPC   C1A 3389  17.027   3.978   6.350
  283DOPC   D2A 3390  16.869   4.098   5.895
  283DOPC   C3A 3391  16.831   4.020   5.434
  283DOPC   C4A 3392  16.966   4.021   4.943
  283DOPC   C1B 3393  17.175   4.419   6.531
  283DOPC   D2B 3394  17.325   4.274   6.067
  283DOPC   C3B 3395  17.246   4.382   5.620
  283DOPC   C4B 3396  16.981   4.450   5.206
  284DOPC   NC3 3397   7.473   7.265   7.454
  284DOPC   PO4 3398   7.172   7.008   7.440
  284DOPC   GL1 3399   7.089   7.100   7.047
  284DOPC   GL2 3400   7.348   7.255   6.998
  284DOPC   C1A 3401   7.031   7.004   6.640
  284DOPC   D2A 3402   7.069   6.843   6.174
  284DOPC   C3A 3403   7.020   6.838   5.710
  284DOPC   C4A 3404   7.113   6.803   5.214
  284DOPC   C1B 3405   7.361   7.433   6.592
  284DOPC   D2B 3406   7.409   7.607   6.108
  284DOPC   C3B 3407   7.377   7.453   5.649
  284DOPC   C4B 3408   7.301   7.291   5.185
  285DOPC   NC3 3409  15.686   9.967   7.424
  285DOPC   PO4 3410  16.031   0.155   7.368
  285DOPC   GL1 3411  15.980   0.149   6.948
  285DOPC   GL2 3412  15.672   0.097   6.944
  285DOPC   C1A 3413  16.092   9.982   6.555
  285DOPC   D2A 3414  16.092   9.841   6.070
  285DOPC   C3A 3415  15.940   9.960   5.636
  285DOPC   C4A 3416  15.783   0.081   5.182
  285DOPC   C1B 3417  15.578   9.857   6.554
  285DOPC   D2B 3418  15.472   9.543   6.147
  285DOPC   C3B 3419  15.443   9.409   5.686
  285DOPC   C4B 3420  15.495   9.326   5.188
  286DOPC   NC3 3421  11.392   8.042   7.184
  286DOPC   PO4 3422  11.782   7.930   7.218
  286DOPC   GL1 3423  12.050   7.856   6.871
  286DOPC   GL2 3424  12.082   7.562   6.965
  286DOPC   C1A 3425  12.201   7.721   6.490
  286DOPC   D2A 3426  12.235   7.409   6.118
  286DOPC   C3A 3427  12.178   7.550   5.685
  286DOPC   C4A 3428  11.842   7.702   5.368
  286DOPC   C1B 3429  12.019   7.262   6.615
  286DOPC   D2B 3430  11.818   7.101   6.171
  286DOPC   C3B 3431  11.917   7.051   5.701
  286DOPC   C4B 3432  11.872   6.971   5.205
  287DOPC   NC3 3433   0.724   4.437   7.656
  287DOPC   PO4 3434   0.775   4.500   7.261
  287DOPC   GL1 3435   0.552   4.264   6.956
  287DOPC   GL2 3436   0.299   4.408   6.977
  287DOPC   C1A 3437   0.670   4.128   6.538
  287DOPC   D2A 3438   0.603   4.054   6.028
  287DOPC   C3A 3439   0.704   4.067   5.553
  287DOPC   C4A 3440   0.835   4.105   5.065
  287DOPC   C1B 3441   0.232   4.436   6.539
  287DOPC   D2B 3442   0.100   4.406   6.051
  287DOPC   C3B 3443   0.220   4.238   5.631
  287DOPC   C4B 3444   0.334   4.136   5.163
  288DOPC   NC3 3445  11.117   3.819   7.177
  288DOPC   PO4 3446  11.519   3.838   7.160
  288DOPC   GL1 3447  11.701   3.622   6.857
  288DOPC   GL2 3448  11.595   3.350   6.943
  288DOPC   C1A 3449  11.575   3.704   6.431
  288DOPC   D2A 3450  11.463   3.732   5.936
  288DOPC   C3A 3451  11.450   3.583   5.478
  288DOPC   C4A 3452  11.470   3.510   4.973
  288DOPC   C1B 3453  11.390   3.241   6.554
  288DOPC   D2B 3454  11.283   3.053   6.086
  288DOPC   C3B 3455  11.228   3.126   5.622
  288DOPC   C4B 3456  11.087   3.230   5.151
  289DOPC   NC3 3457  13.349   6.213   7.655
  289DOPC   PO4 3458  13.181   6.126   7.293
  289DOPC   GL1 3459  13.376   6.199   6.919
  289DOPC   GL2 3460  13.200   6.025   6.759
  289DOPC   C1A 3461  13.677   6.257   6.607
  289DOPC   D2A 3462  13.842   6.386   6.149
  289DOPC   C3A 3463  13.744   6.196   5.728
  289DOPC   C4A 3464  13.738   6.049   5.261
  289DOPC   C1B 3465  13.319   5.959   6.335
  289DOPC   D2B 3466  13.456   5.756   5.882
  289DOPC   C3B 3467  13.377   5.698   5.406
  289DOPC   C4B 3468  13.292   5.772   4.914
  290DOPC   NC3 3469  18.700   7.281   7.590
  290DOPC   PO4 3470  18.936   7.488   7.334
  290DOPC   GL1 3471  18.932   7.409   6.925
  290DOPC   GL2 3472  19.169   7.218   6.848
  290DOPC   C1A 3473  18.696   7.490   6.562
  290DOPC   D2A 3474  18.488   7.476   6.104
  290DOPC   C3A 3475  18.611   7.430   5.652
  290DOPC   C4A 3476  18.672   7.242   5.198
  290DOPC   C1B 3477  19.088   7.163   6.418
  290DOPC   D2B 3478  18.904   7.130   5.954
  290DOPC   C3B 3479  19.086   7.272   5.535
  290DOPC   C4B 3480  19.085   7.509   5.092
  291DOPC   NC3 3481   1.097   6.826   7.207
  291DOPC   PO4 3482   1.325   6.781   6.887
  291DOPC   GL1 3483   1.050   6.890   6.554
  291DOPC   GL2 3484   0.935   6.607   6.641
  291DOPC   C1A 3485   1.327   6.841   6.214
  291DOPC   D2A 3486   1.733   6.696   5.951
  291DOPC   C3A 3487   1.522   6.752   5.535
  291DOPC   C4A 3488   1.101   6.849   5.300
  291DOPC   C1B 3489   1.000   6.249   6.375
  291DOPC   D2B 3490   1.249   5.980   6.033
  291DOPC   C3B 3491   1.289   6.223   5.622
  291DOPC   C4B 3492   1.322   6.396   5.154
  292DOPC   NC3 3493  11.373   0.266   7.241
  292DOPC   PO4 3494  11.695   0.085   7.100
  292DOPC   GL1 3495  11.664   0.329   6.748
  292DOPC   GL2 3496  11.353   0.348   6.742
  292DOPC   C1A 3497  11.713   0.371   6.305
  292DOPC   D2A 3498  11.688   0.368   5.786
  292DOPC   C3A 3499  11.502   0.202   5.371
  292DOPC   C4A 3500  11.397   0.066   4.891
  292DOPC   C1B 3501  11.202   0.391   6.292
  292DOPC   D2B 3502  11.111   0.313   5.780
  292DOPC   C3B 3503  11.080   0.565   5.362
  292DOPC   C4B 3504  10.974   0.839   4.952
  293DOPC   NC3 3505  17.202   5.836   7.479
  293DOPC   PO4 3506  17.178   5.544   7.213
  293DOPC   GL1 3507  17.480   5.701   7.008
  293DOPC   GL2 3508  17.473   5.989   7.129
  293DOPC   C1A 3509  17.499   5.723   6.576
  293DOPC   D2A 3510  17.348   5.751   6.111
  293DOPC   C3A 3511  17.416   5.665   5.650
  293DOPC   C4A 3512  17.567   5.622   5.182
  293DOPC   C1B 3513  17.444   6.205   6.741
  293DOPC   D2B 3514  17.273   6.251   6.278
  293DOPC   C3B 3515  17.313   6.141   5.814
  293DOPC   C4B 3516  17.280   6.058   5.319
  294DOPC   NC3 3517   8.875   7.188   6.901
  294DOPC   PO4 3518   8.685   7.449   7.136
  294DOPC   GL1 3519   8.885   7.773   6.893
  294DOPC   GL2 3520   9.144   7.597   6.933
  294DOPC   C1A 3521   8.816   7.758   6.436
  294DOPC   D2A 3522   8.898   7.594   5.953
  294DOPC   C3A 3523   8.754   7.499   5.506
  294DOPC   C4A 3524   8.404   7.539   5.150
  294DOPC   C1B 3525   9.195   7.416   6.519
  294DOPC   D2B 3526   9.278   7.207   6.058
  294DOPC   C3B 3527   9.233   7.363   5.616
  294DOPC   C4B 3528   9.166   7.697   5.252
  295DOPC   NC3 3529  11.523   4.145   7.547
  295DOPC   PO4 3530  11.200   4.275   7.355
  295DOPC   GL1 3531  11.312   4.223   6.940
  295DOPC   GL2 3532  11.224   4.532   6.915
  295DOPC   C1A 3533  11.235   4.110   6.520
  295DOPC   D2A 3534  11.179   4.210   6.034
  295DOPC   C3A 3535  11.168   4.036   5.603
  295DOPC   C4A 3536  11.173   3.881   5.144
  295DOPC   C1B 3537  11.122   4.645   6.494
  295DOPC   D2B 3538  11.254   4.758   6.028
  295DOPC   C3B 3539  11.144   4.580   5.606
  295DOPC   C4B 3540  10.915   4.343   5.229
  296DOPC   NC3 3541   6.406   3.760   7.409
  296DOPC   PO4 3542   6.551   3.398   7.315
  296DOPC   GL1 3543   6.732   3.446   6.970
  296DOPC   GL2 3544   6.700   3.745   6.963
  296DOPC   C1A 3545   6.643   3.267   6.591
  296DOPC   D2A 3546   6.505   3.133   6.136
  296DOPC   C3A 3547   6.597   3.250   5.690
  296DOPC   C4A 3548   6.888   3.219   5.279
  296DOPC   C1B 3549   6.492   3.750   6.561
  296DOPC   D2B 3550   6.361   3.670   6.082
  296DOPC   C3B 3551   6.418   3.737   5.615
  296DOPC   C4B 3552   6.634   3.690   5.163
  297DOPC   NC3 3553   8.807   7.028   7.394
  297DOPC   PO4 3554   9.014   6.757   7.191
  297DOPC   GL1 3555   8.990   6.746   6.801
  297DOPC   GL2 3556   8.690   6.756   6.825
  297DOPC   C1A 3557   8.993   6.945   6.413
  297DOPC   D2A 3558   8.723   7.099   6.014
  297DOPC   C3A 3559   8.902   6.947   5.606
  297DOPC   C4A 3560   8.947   6.721   5.169
  297DOPC   C1B 3561   8.520   6.696   6.432
  297DOPC   D2B 3562   8.366   6.641   5.965
  297DOPC   C3B 3563   8.493   6.551   5.527
  297DOPC   C4B 3564   8.536   6.449   5.051
  298DOPC   NC3 3565  13.470   7.399   7.481
  298DOPC   PO4 3566  13.834   7.497   7.366
  298DOPC   GL1 3567  13.715   7.490   6.914
  298DOPC   GL2 3568  13.486   7.307   7.011
  298DOPC   C1A 3569  13.470   7.534   6.528
  298DOPC   D2A 3570  13.289   7.434   6.063
  298DOPC   C3A 3571  13.426   7.502   5.618
  298DOPC   C4A 3572  13.632   7.451   5.175
  298DOPC   C1B 3573  13.451   7.022   6.676
  298DOPC   D2B 3574  13.577   6.959   6.207
  298DOPC   C3B 3575  13.501   7.031   5.764
  298DOPC   C4B 3576  13.350   7.029   5.308
  299DOPC   NC3 3577   4.125   5.254   7.631
  299DOPC   PO4 3578   4.098   5.300   7.231
  299DOPC   GL1 3579   4.334   5.277   6.895
  299DOPC   GL2 3580   4.603   5.254   6.997
  299DOPC   C1A 3581   4.338   5.286   6.443
  299DOPC   D2A 3582   4.466   5.473   5.977
  299DOPC   C3A 3583   4.254   5.476   5.545
  299DOPC   C4A 3584   3.991   5.634   5.133
  299DOPC   C1B 3585   4.735   5.050   6.618
  299DOPC   D2B 3586   4.760   4.940   6.116
  299DOPC   C3B 3587   4.598   5.031   5.675
  299DOPC   C4B 3588   4.458   5.142   5.202
  300DOPC   NC3 3589   5.297   4.906   7.397
  300DOPC   PO4 3590   4.964   5.054   7.236
  300DOPC   GL1 3591   5.057   4.811   6.910
  300DOPC   GL2 3592   5.348   4.739   6.958
  300DOPC   C1A 3593   5.032   4.662   6.498
  300DOPC   D2A 3594   5.091   4.532   6.023
  300DOPC   C3A 3595   4.846   4.557   5.631
  300DOPC   C4A 3596   4.474   4.646   5.320
  300DOPC   C1B 3597   5.555   4.687   6.547
  300DOPC   D2B 3598   5.591   4.627   6.041
  300DOPC   C3B 3599   5.409   4.462   5.615
  300DOPC   C4B 3600   5.124   4.399   5.197
  301DOPC   NC3 3601  12.227   5.858   7.538
  301DOPC   PO4 3602  12.410   5.569   7.324
  301DOPC   GL1 3603  12.402   5.915   7.055
  301DOPC   GL2 3604  12.104   5.918   7.071
  301DOPC   C1A 3605  12.431   6.110   6.656
  301DOPC   D2A 3606  12.303   6.298   6.198
  301DOPC   C3A 3607  12.281   6.078   5.777
  301DOPC   C4A 3608  12.319   5.829   5.337
  301DOPC   C1B 3609  11.977   5.878   6.647
  301DOPC   D2B 3610  12.135   5.794   6.171
  301DOPC   C3B 3611  12.057   5.621   5.730
  301DOPC   C4B 3612  11.792   5.471   5.332
  302DOPC   NC3 3613   2.940   4.806   7.559
  302DOPC   PO4 3614   3.062   4.656   7.217
  302DOPC   GL1 3615   2.930   4.865   6.868
  302DOPC   GL2 3616   2.666   4.712   6.865
  302DOPC   C1A 3617   2.990   4.746   6.440
  302DOPC   D2A 3618   2.999   4.417   6.059
  302DOPC   C3A 3619   2.982   4.553   5.620
  302DOPC   C4A 3620   2.966   4.699   5.151
  302DOPC   C1B 3621   2.628   4.403   6.524
  302DOPC   D2B 3622   2.597   4.057   6.145
  302DOPC   C3B 3623   2.543   4.316   5.757
  302DOPC   C4B 3624   2.513   4.669   5.410
  303DOPC   NC3 3625   1.023   3.585   7.421
  303DOPC   PO4 3626   1.289   3.766   7.185
  303DOPC   GL1 3627   1.140   3.505   6.924
  303DOPC   GL2 3628   0.965   3.737   6.765
  303DOPC   C1A 3629   1.360   3.486   6.572
  303DOPC   D2A 3630   1.407   3.653   6.111
  303DOPC   C3A 3631   1.466   3.577   5.657
  303DOPC   C4A 3632   1.415   3.376   5.200
  303DOPC   C1B 3633   0.925   3.700   6.296
  303DOPC   D2B 3634   0.971   3.701   5.800
  303DOPC   C3B 3635   1.098   3.757   5.346
  303DOPC   C4B 3636   1.007   3.596   4.881
  304DOPC   NC3 3637  16.337   4.965   7.373
  304DOPC   PO4 3638  16.522   5.286   7.212
  304DOPC   GL1 3639  16.682   5.244   6.847
  304DOPC   GL2 3640  16.924   5.418   6.851
  304DOPC   C1A 3641  16.676   5.089   6.448
  304DOPC   D2A 3642  16.699   5.066   5.953
  304DOPC   C3A 3643  16.545   4.978   5.528
  304DOPC   C4A 3644  16.395   4.694   5.164
  304DOPC   C1B 3645  17.054   5.450   6.427
  304DOPC   D2B 3646  17.137   5.327   5.943
  304DOPC   C3B 3647  16.917   5.335   5.538
  304DOPC   C4B 3648  16.575   5.345   5.173
  305DOPC   NC3 3649   1.237   4.974   7.178
  305DOPC   PO4 3650   0.842   5.008   7.115
  305DOPC   GL1 3651   0.867   4.909   6.675
  305DOPC   GL2 3652   1.162   4.813   6.735
  305DOPC   C1A 3653   0.887   5.005   6.223
  305DOPC   D2A 3654   1.081   4.988   5.747
  305DOPC   C3A 3655   1.219   5.281   5.397
  305DOPC   C4A 3656   1.088   5.474   4.941
  305DOPC   C1B 3657   1.363   4.820   6.324
  305DOPC   D2B 3658   1.407   4.604   5.858
  305DOPC   C3B 3659   1.395   4.749   5.394
  305DOPC   C4B 3660   1.348   5.022   4.970
  306DOPC   NC3 3661  13.255   2.314   7.338
  306DOPC   PO4 3662  13.055   2.029   7.137
  306DOPC   GL1 3663  13.181   2.190   6.743
  306DOPC   GL2 3664  13.434   2.312   6.891
  306DOPC   C1A 3665  13.320   2.074   6.327
  306DOPC   D2A 3666  13.373   1.957   5.856
  306DOPC   C3A 3667  13.462   2.149   5.454
  306DOPC   C4A 3668  13.587   2.326   5.014
  306DOPC   C1B 3669  13.738   2.192   6.580
  306DOPC   D2B 3670  13.854   1.953   6.137
  306DOPC   C3B 3671  13.859   1.866   5.665
  306DOPC   C4B 3672  13.739   1.826   5.172
  307DOPC   NC3 3673  17.445   7.576   7.479
  307DOPC   PO4 3674  17.708   7.754   7.241
  307DOPC   GL1 3675  17.370   7.715   6.996
  307DOPC   GL2 3676  17.396   7.403   6.997
  307DOPC   C1A 3677  17.256   7.787   6.589
  307DOPC   D2A 3678  17.165   7.885   6.113
  307DOPC   C3A 3679  17.180   7.657   5.707
  307DOPC   C4A 3680  17.280   7.386   5.298
  307DOPC   C1B 3681  17.313   7.160   6.602
  307DOPC   D2B 3682  17.183   6.963   6.142
  307DOPC   C3B 3683  17.278   6.919   5.669
  307DOPC   C4B 3684  17.477   6.894   5.212
  308DOPC   NC3 3685   3.101   0.053   7.418
  308DOPC   PO4 3686   3.124   0.235   7.064
  308DOPC   GL1 3687   3.318   0.113   6.742
  308DOPC   GL2 3688   3.534   9.925   6.845
  308DOPC   C1A 3689   3.267   0.068   6.316
  308DOPC   D2A 3690   3.255   9.908   5.855
  308DOPC   C3A 3691   3.132   9.812   5.428
  308DOPC   C4A 3692   2.882   0.065   5.111
  308DOPC   C1B 3693   3.738   9.715   6.485
  308DOPC   D2B 3694   3.858   9.564   6.003
  308DOPC   C3B 3695   3.589   9.582   5.595
  308DOPC   C4B 3696   3.363   9.430   5.176
  309DOPC   NC3 3697  14.956   4.124   7.672
  309DOPC   PO4 3698  14.597   3.941   7.604
  309DOPC   GL1 3699  14.669   3.855   7.182
  309DOPC   GL2 3700  14.902   4.078   7.176
  309DOPC   C1A 3701  14.564   3.969   6.765
  309DOPC   D2A 3702  14.622   4.202   6.318
  309DOPC   C3A 3703  14.662   4.202   5.847
  309DOPC   C4A 3704  14.679   4.190   5.351
  309DOPC   C1B 3705  14.988   4.285   6.758
  309DOPC   D2B 3706  15.116   4.366   6.255
  309DOPC   C3B 3707  15.162   4.330   5.773
  309DOPC   C4B 3708  15.202   4.207   5.283
  310DOPC   NC3 3709   5.252   2.338   7.168
  310DOPC   PO4 3710   5.567   2.574   7.120
  310DOPC   GL1 3711   5.484   2.684   6.757
  310DOPC   GL2 3712   5.187   2.613   6.794
  310DOPC   C1A 3713   5.493   2.558   6.358
  310DOPC   D2A 3714   5.422   2.590   5.874
  310DOPC   C3A 3715   5.308   2.709   5.446
  310DOPC   C4A 3716   5.552   2.485   5.086
  310DOPC   C1B 3717   5.005   2.661   6.406
  310DOPC   D2B 3718   4.745   2.858   6.029
  310DOPC   C3B 3719   4.779   2.747   5.572
  310DOPC   C4B 3720   4.712   2.725   5.086
  311DOPC   NC3 3721  19.188   5.070   7.194
  311DOPC   PO4 3722  19.481   4.801   7.160
  311DOPC   GL1 3723  19.526   4.825   6.747
  311DOPC   GL2 3724  19.248   4.975   6.739
  311DOPC   C1A 3725  19.580   5.025   6.363
  311DOPC   D2A 3726  19.437   5.268   5.955
  311DOPC   C3A 3727  19.314   5.140   5.515
  311DOPC   C4A 3728  19.215   5.065   5.029
  311DOPC   C1B 3729  19.094   5.160   6.351
  311DOPC   D2B 3730  18.898   5.232   5.885
  311DOPC   C3B 3731  18.856   5.373   5.436
  311DOPC   C4B 3732  18.889   5.463   4.948
  312DOPC   NC3 3733  13.823   6.114   7.091
  312DOPC   PO4 3734  14.072   6.435   7.115
  312DOPC   GL1 3735  14.311   6.540   6.763
  312DOPC   GL2 3736  14.269   6.849   6.799
  312DOPC   C1A 3737  14.304   6.530   6.317
  312DOPC   D2A 3738  14.323   6.467   5.804
  312DOPC   C3A 3739  14.515   6.412   5.347
  312DOPC   C4A 3740  14.492   6.393   4.841
  312DOPC   C1B 3741  14.355   7.071   6.393
  312DOPC   D2B 3742  14.391   7.184   5.877
  312DOPC   C3B 3743  14.292   6.880   5.500
  312DOPC   C4B 3744  14.050   6.494   5.242
  313DOPC   NC3 3745   5.319   5.397   7.196
  313DOPC   PO4 3746   5.576   5.136   7.046
  313DOPC   GL1 3747   5.334   5.079   6.667
  313DOPC   GL2 3748   5.114   5.252   6.799
  313DOPC   C1A 3749   5.279   5.004   6.211
  313DOPC   D2A 3750   5.210   4.944   5.702
  313DOPC   C3A 3751   4.953   4.915   5.285
  313DOPC   C4A 3752   4.715   4.708   4.885
  313DOPC   C1B 3753   5.017   5.414   6.392
  313DOPC   D2B 3754   4.976   5.348   5.896
  313DOPC   C3B 3755   4.808   5.444   5.467
  313DOPC   C4B 3756   4.535   5.677   5.128
  314DOPC   NC3 3757   9.599   7.744   7.096
  314DOPC   PO4 3758   9.907   7.833   7.345
  314DOPC   GL1 3759   9.998   8.138   7.041
  314DOPC   GL2 3760   9.691   8.214   7.022
  314DOPC   C1A 3761  10.062   8.119   6.599
  314DOPC   D2A 3762   9.871   8.197   6.148
  314DOPC   C3A 3763   9.780   8.087   5.704
  314DOPC   C4A 3764   9.658   7.892   5.266
  314DOPC   C1B 3765   9.593   8.371   6.595
  314DOPC   D2B 3766   9.523   8.560   6.117
  314DOPC   C3B 3767   9.622   8.574   5.644
  314DOPC   C4B 3768   9.745   8.414   5.181
  315DOPC   NC3 3769  11.384   6.441   7.629
  315DOPC   PO4 3770  11.408   6.782   7.411
  315DOPC   GL1 3771  11.266   7.020   7.062
  315DOPC   GL2 3772  10.962   7.017   7.118
  315DOPC   C1A 3773  11.261   6.918   6.633
  315DOPC   D2A 3774  11.037   6.729   6.226
  315DOPC   C3A 3775  11.297   6.725   5.837
  315DOPC   C4A 3776  11.451   6.766   5.383
  315DOPC   C1B 3777  10.776   7.076   6.677
  315DOPC   D2B 3778  10.780   7.169   6.159
  315DOPC   C3B 3779  10.813   6.897   5.768
  315DOPC   C4B 3780  10.965   6.563   5.431
  316DOPC   NC3 3781  18.576   2.621   7.317
  316DOPC   PO4 3782  18.690   2.237   7.374
  316DOPC   GL1 3783  18.661   2.066   6.984
  316DOPC   GL2 3784  18.975   2.047   6.991
  316DOPC   C1A 3785  18.569   2.331   6.632
  316DOPC   D2A 3786  18.495   2.646   6.245
  316DOPC   C3A 3787  18.486   2.684   5.773
  316DOPC   C4A 3788  18.493   2.608   5.282
  316DOPC   C1B 3789  19.091   2.330   6.663
  316DOPC   D2B 3790  19.246   2.567   6.234
  316DOPC   C3B 3791  19.049   2.717   5.832
  316DOPC   C4B 3792  18.847   2.963   5.455
  317DOPC   NC3 3793  11.746   0.105   7.606
  317DOPC   PO4 3794  12.017   0.343   7.423
  317DOPC   GL1 3795  12.149   0.228   6.994
  317DOPC   GL2 3796  12.039   0.491   6.928
  317DOPC   C1A 3797  12.114   0.121   6.553
  317DOPC   D2A 3798  11.993   0.043   6.057
  317DOPC   C3A 3799  12.087   0.081   5.590
  317DOPC   C4A 3800  12.233   0.061   5.120
  317DOPC   C1B 3801  12.087   0.666   6.506
  317DOPC   D2B 3802  12.150   0.912   6.050
  317DOPC   C3B 3803  12.046   0.799   5.587
  317DOPC   C4B 3804  11.930   0.483   5.209
  318DOPC   NC3 3805  10.347   6.603   7.601
  318DOPC   PO4 3806  10.481   6.308   7.359
  318DOPC   GL1 3807  10.248   6.359   6.988
  318DOPC   GL2 3808  10.164   6.625   7.135
  318DOPC   C1A 3809  10.399   6.495   6.577
  318DOPC   D2A 3810  10.473   6.510   6.075
  318DOPC   C3A 3811  10.335   6.304   5.668
  318DOPC   C4A 3812  10.245   6.151   5.200
  318DOPC   C1B 3813  10.279   6.950   6.848
  318DOPC   D2B 3814  10.317   7.126   6.379
  318DOPC   C3B 3815  10.339   6.980   5.932
  318DOPC   C4B 3816  10.364   6.796   5.465
  319DOPC   NC3 3817  19.613   0.729   7.365
  319DOPC   PO4 3818  19.961   0.700   7.165
  319DOPC   GL1 3819  19.815   0.853   6.768
  319DOPC   GL2 3820  19.531   0.776   6.871
  319DOPC   C1A 3821  19.826   0.765   6.310
  319DOPC   D2A 3822  19.629   0.699   5.831
  319DOPC   C3A 3823  19.748   0.337   5.543
  319DOPC   C4A 3824   0.074   9.955   5.541
  319DOPC   C1B 3825  19.419   0.533   6.496
  319DOPC   D2B 3826  19.370   0.308   6.033
  319DOPC   C3B 3827  19.246   0.206   5.593
  319DOPC   C4B 3828  19.286   0.230   5.103
  320DOPC   NC3 3829  15.861   0.596   7.496
  320DOPC   PO4 3830  15.588   0.453   7.246
  320DOPC   GL1 3831  15.800   0.555   6.926
  320DOPC   GL2 3832  16.090   0.568   7.062
  320DOPC   C1A 3833  15.788   0.393   6.508
  320DOPC   D2A 3834  15.903   0.328   6.019
  320DOPC   C3A 3835  15.768   0.454   5.577
  320DOPC   C4A 3836  15.455   0.478   5.182
  320DOPC   C1B 3837  16.276   0.450   6.663
  320DOPC   D2B 3838  16.397   0.237   6.206
  320DOPC   C3B 3839  16.318   0.301   5.730
  320DOPC   C4B 3840  16.177   0.433   5.258
  321DOPC   NC3 3841  17.300   9.693   7.169
  321DOPC   PO4 3842  17.362   9.344   7.368
  321DOPC   GL1 3843  17.604   9.257   7.045
  321DOPC   GL2 3844  17.706   9.546   6.994
  321DOPC   C1A 3845  17.467   9.284   6.629
  321DOPC   D2A 3846  17.451   9.450   6.155
  321DOPC   C3A 3847  17.437   9.401   5.676
  321DOPC   C4A 3848  17.546   9.229   5.213
  321DOPC   C1B 3849  17.513   9.778   6.634
  321DOPC   D2B 3850  17.289   9.941   6.212
  321DOPC   C3B 3851  17.335   9.929   5.748
  321DOPC   C4B 3852  17.332   9.761   5.283
  322DOPC   NC3 3853   6.679   4.675   7.308
  322DOPC   PO4 3854   6.402   4.867   7.101
  322DOPC   GL1 3855   6.538   4.706   6.714
  322DOPC   GL2 3856   6.643   4.471   6.895
  322DOPC   C1A 3857   6.569   4.657   6.272
  322DOPC   D2A 3858   6.604   4.651   5.780
  322DOPC   C3A 3859   6.598   4.510   5.346
  322DOPC   C4A 3860   6.354   4.139   5.147
  322DOPC   C1B 3861   6.798   4.128   6.687
  322DOPC   D2B 3862   6.763   4.008   6.199
  322DOPC   C3B 3863   6.782   4.105   5.720
  322DOPC   C4B 3864   6.932   4.133   5.235
  323DOPC   NC3 3865  16.676   6.582   7.528
  323DOPC   PO4 3866  16.346   6.428   7.348
  323DOPC   GL1 3867  16.541   6.159   7.033
  323DOPC   GL2 3868  16.760   6.376   7.058
  323DOPC   C1A 3869  16.567   6.173   6.591
  323DOPC   D2A 3870  16.429   6.218   6.111
  323DOPC   C3A 3871  16.518   6.153   5.653
  323DOPC   C4A 3872  16.757   6.187   5.222
  323DOPC   C1B 3873  16.679   6.682   6.722
  323DOPC   D2B 3874  16.696   7.019   6.336
  323DOPC   C3B 3875  16.650   6.888   5.881
  323DOPC   C4B 3876  16.600   6.650   5.434
  324DOPC   NC3 3877   7.183   8.550   7.208
  324DOPC   PO4 3878   7.150   8.184   7.055
  324DOPC   GL1 3879   7.527   8.313   6.884
  324DOPC   GL2 3880   7.618   8.043   6.941
  324DOPC   C1A 3881   7.319   8.400   6.479
  324DOPC   D2A 3882   7.097   8.451   6.040
  324DOPC   C3A 3883   7.040   8.290   5.613
  324DOPC   C4A 3884   6.809   8.314   5.189
  324DOPC   C1B 3885   7.524   7.924   6.538
  324DOPC   D2B 3886   7.560   8.120   6.078
  324DOPC   C3B 3887   7.597   7.926   5.656
  324DOPC   C4B 3888   7.539   7.760   5.190
  325DOPC   NC3 3889   7.612   1.161   7.384
  325DOPC   PO4 3890   7.211   1.126   7.341
  325DOPC   GL1 3891   7.114   1.113   6.902
  325DOPC   GL2 3892   7.409   1.282   6.897
  325DOPC   C1A 3893   6.961   0.821   6.575
  325DOPC   D2A 3894   6.747   0.776   6.101
  325DOPC   C3A 3895   6.990   0.901   5.705
  325DOPC   C4A 3896   7.290   1.197   5.422
  325DOPC   C1B 3897   7.645   1.393   6.513
  325DOPC   D2B 3898   7.847   1.521   6.064
  325DOPC   C3B 3899   7.785   1.398   5.602
  325DOPC   C4B 3900   7.614   1.540   5.153
  326DOPC   NC3 3901  16.572   0.770   7.075
  326DOPC   PO4 3902  16.837   0.498   7.219
  326DOPC   GL1 3903  16.851   0.208   6.898
  326DOPC   GL2 3904  16.712   0.440   6.784
  326DOPC   C1A 3905  16.885   0.093   6.493
  326DOPC   D2A 3906  16.875   0.213   6.016
  326DOPC   C3A 3907  16.796   0.186   5.564
  326DOPC   C4A 3908  16.703   0.300   5.096
  326DOPC   C1B 3909  16.720   0.590   6.385
  326DOPC   D2B 3910  16.618   0.671   5.911
  326DOPC   C3B 3911  16.572   0.687   5.452
  326DOPC   C4B 3912  16.519   0.763   4.962
  327DOPC   NC3 3913  10.127   1.681   7.321
  327DOPC   PO4 3914  10.372   1.988   7.420
  327DOPC   GL1 3915  10.439   2.069   7.021
  327DOPC   GL2 3916  10.715   1.994   7.020
  327DOPC   C1A 3917  10.234   2.043   6.621
  327DOPC   D2A 3918  10.018   2.162   6.179
  327DOPC   C3A 3919  10.156   2.044   5.739
  327DOPC   C4A 3920  10.371   1.918   5.291
  327DOPC   C1B 3921  10.732   1.925   6.599
  327DOPC   D2B 3922  10.515   1.958   6.145
  327DOPC   C3B 3923  10.665   1.969   5.700
  327DOPC   C4B 3924  10.903   1.823   5.288
  328DOPC   NC3 3925   1.156   7.292   7.416
  328DOPC   PO4 3926   1.134   7.582   7.137
  328DOPC   GL1 3927   0.875   7.384   6.804
  328DOPC   GL2 3928   1.125   7.203   6.874
  328DOPC   C1A 3929   0.869   7.367   6.338
  328DOPC   D2A 3930   0.848   7.384   5.813
  328DOPC   C3A 3931   0.936   7.337   5.330
  328DOPC   C4A 3932   1.002   7.269   4.819
  328DOPC   C1B 3933   1.352   7.319   6.496
  328DOPC   D2B 3934   1.570   7.264   6.036
  328DOPC   C3B 3935   1.470   7.305   5.574
  328DOPC   C4B 3936   1.414   7.329   5.084
  329DOPC   NC3 3937   9.320   3.062   7.630
  329DOPC   PO4 3938   9.476   3.364   7.405
  329DOPC   GL1 3939   9.420   3.446   6.970
  329DOPC   GL2 3940   9.253   3.204   6.912
  329DOPC   C1A 3941   9.344   3.597   6.552
  329DOPC   D2A 3942   9.134   3.534   6.087
  329DOPC   C3A 3943   9.141   3.541   5.611
  329DOPC   C4A 3944   8.826   3.666   5.254
  329DOPC   C1B 3945   8.943   3.282   6.570
  329DOPC   D2B 3946   8.618   3.509   6.244
  329DOPC   C3B 3947   8.659   3.437   5.775
  329DOPC   C4B 3948   8.767   3.173   5.361
  330DOPC   NC3 3949   7.000   3.679   7.370
  330DOPC   PO4 3950   7.401   3.624   7.350
  330DOPC   GL1 3951   7.423   3.701   6.868
  330DOPC   GL2 3952   7.151   3.616   6.930
  330DOPC   C1A 3953   7.467   3.618   6.413
  330DOPC   D2A 3954   7.362   3.438   5.953
  330DOPC   C3A 3955   7.440   3.342   5.500
  330DOPC   C4A 3956   7.665   3.069   5.158
  330DOPC   C1B 3957   6.982   3.637   6.535
  330DOPC   D2B 3958   6.856   3.518   6.064
  330DOPC   C3B 3959   6.973   3.622   5.615
  330DOPC   C4B 3960   7.191   3.679   5.165
  331DOPC   NC3 3961  18.667   1.749   7.396
  331DOPC   PO4 3962  18.922   1.445   7.381
  331DOPC   GL1 3963  18.914   1.389   6.911
  331DOPC   GL2 3964  18.798   1.649   6.941
  331DOPC   C1A 3965  19.113   1.427   6.502
  331DOPC   D2A 3966  19.055   1.707   6.079
  331DOPC   C3A 3967  19.002   1.799   5.620
  331DOPC   C4A 3968  19.031   1.805   5.127
  331DOPC   C1B 3969  18.859   1.877   6.562
  331DOPC   D2B 3970  18.817   2.202   6.175
  331DOPC   C3B 3971  18.757   2.255   5.706
  331DOPC   C4B 3972  18.897   2.297   5.228
  332DOPC   NC3 3973   7.921   5.741   7.528
  332DOPC   PO4 3974   8.170   6.044   7.544
  332DOPC   GL1 3975   8.373   6.028   7.150
  332DOPC   GL2 3976   8.086   5.936   7.034
  332DOPC   C1A 3977   8.456   6.064   6.719
  332DOPC   D2A 3978   8.435   6.202   6.246
  332DOPC   C3A 3979   8.298   6.163   5.801
  332DOPC   C4A 3980   8.189   6.157   5.319
  332DOPC   C1B 3981   7.986   5.928   6.568
  332DOPC   D2B 3982   7.986   5.857   6.057
  332DOPC   C3B 3983   8.023   5.738   5.587
  332DOPC   C4B 3984   8.041   5.481   5.141
  333DOPC   NC3 3985  19.653   1.505   7.392
  333DOPC   PO4 3986  19.736   1.170   7.181
  333DOPC   GL1 3987  19.473   1.245   6.914
  333DOPC   GL2 3988  19.233   1.131   7.017
  333DOPC   C1A 3989  19.559   1.157   6.502
  333DOPC   D2A 3990  19.706   1.169   6.022
  333DOPC   C3A 3991  19.740   1.313   5.577
  333DOPC   C4A 3992  19.977   1.320   5.152
  333DOPC   C1B 3993  19.105   0.929   6.648
  333DOPC   D2B 3994  19.262   0.892   6.168
  333DOPC   C3B 3995  19.269   1.106   5.752
  333DOPC   C4B 3996  19.268   1.416   5.375
  334DOPC   NC3 3997   0.431   3.683   7.387
  334DOPC   PO4 3998   0.232   3.448   7.145
  334DOPC   GL1 3999   0.485   3.721   6.921
  334DOPC   GL2 4000   0.710   3.522   7.019
  334DOPC   C1A 4001   0.457   3.678   6.493
  334DOPC   D2A 4002   0.488   3.548   6.016
  334DOPC   C3A 4003   0.299   3.693   5.613
  334DOPC   C4A 4004   0.116   3.671   5.150
  334DOPC   C1B 4005   0.840   3.328   6.607
  334DOPC   D2B 4006   0.828   3.179   6.097
  334DOPC   C3B 4007   0.728   3.300   5.622
  334DOPC   C4B 4008   0.626   3.621   5.233
  335PF10C   C1 4009   3.711   7.504   7.036
  335PF10C   F2 4010   3.809   7.448   6.830
  335PF10C   F3 4011   3.704   7.602   6.712
  335PF10C   F4 4012   3.825   7.592   6.517
  335PF10C   F5 4013   3.652   7.605   6.382
  335PF10C   F6 4014   3.750   7.744   6.228
  335PF10C   F7 4015   3.568   7.856   6.177
  335PF10C   F8 4016   3.607   7.854   5.950
  335PF10C   F9 4017   3.541   8.060   5.911
  335PF10C  F10 4018   3.605   8.062   5.690
  336PF10C   C1 4019   9.504   1.687   7.658
  336PF10C   F2 4020   9.681   1.793   7.544
  336PF10C   F3 4021   9.628   1.720   7.344
  336PF10C   F4 4022   9.746   1.865   7.211
  336PF10C   F5 4023   9.586   1.894   7.063
  336PF10C   F6 4024   9.719   1.892   6.876
  336PF10C   F7 4025   9.579   1.777   6.750
  336PF10C   F8 4026   9.610   1.903   6.560
  336PF10C   F9 4027   9.610   1.736   6.418
  336PF10C  F10 4028   9.633   1.865   6.229
  337PF10C   C1 4029  16.627   4.831   7.034
  337PF10C   F2 4030  16.575   4.847   6.805
  337PF10C   F3 4031  16.578   4.630   6.767
  337PF10C   F4 4032  16.604   4.632   6.538
  337PF10C   F5 4033  16.467   4.466   6.495
  337PF10C   F6 4034  16.595   4.371   6.330
  337PF10C   F7 4035  16.428   4.331   6.193
  337PF10C   F8 4036  16.538   4.386   5.999
  337PF10C   F9 4037  16.452   4.222   5.881
  337PF10C  F10 4038  16.513   4.302   5.674
  338DOPC   NC3 4039  11.520   3.328   2.499
  338DOPC   PO4 4040  11.156   3.352   2.656
  338DOPC   GL1 4041  11.127   3.518   3.064
  338DOPC   GL2 4042  10.845   3.571   3.058
  338DOPC   C1A 4043  11.221   3.438   3.496
  338DOPC   D2A 4044  11.376   3.289   3.956
  338DOPC   C3A 4045  11.398   3.525   4.360
  338DOPC   C4A 4046  11.371   3.907   4.674
  338DOPC   C1B 4047  10.714   3.369   3.426
  338DOPC   D2B 4048  10.653   3.242   3.903
  338DOPC   C3B 4049  10.825   3.411   4.303
  338DOPC   C4B 4050  11.008   3.546   4.735
  339DOPC   NC3 4051   7.974   6.520   2.614
  339DOPC   PO4 4052   7.736   6.776   2.805
  339DOPC   GL1 4053   7.788   6.584   3.165
  339DOPC   GL2 4054   8.073   6.515   3.075
  339DOPC   C1A 4055   7.807   6.683   3.592
  339DOPC   D2A 4056   7.956   6.947   3.980
  339DOPC   C3A 4057   7.922   6.613   4.297
  339DOPC   C4A 4058   7.771   6.569   4.765
  339DOPC   C1B 4059   8.286   6.613   3.442
  339DOPC   D2B 4060   8.447   6.742   3.897
  339DOPC   C3B 4061   8.420   6.492   4.304
  339DOPC   C4B 4062   8.228   6.250   4.709
  340DOPC   NC3 4063  12.084   2.405   2.865
  340DOPC   PO4 4064  12.315   2.738   2.788
  340DOPC   GL1 4065  12.488   2.920   3.137
  340DOPC   GL2 4066  12.784   2.855   3.058
  340DOPC   C1A 4067  12.365   2.832   3.572
  340DOPC   D2A 4068  12.315   2.912   4.068
  340DOPC   C3A 4069  12.394   2.697   4.487
  340DOPC   C4A 4070  12.417   2.598   4.974
  340DOPC   C1B 4071  13.027   2.997   3.422
  340DOPC   D2B 4072  13.191   3.095   3.900
  340DOPC   C3B 4073  13.092   2.949   4.347
  340DOPC   C4B 4074  12.846   2.854   4.780
  341DOPC   NC3 4075   9.739   4.787   2.580
  341DOPC   PO4 4076  10.028   4.624   2.820
  341DOPC   GL1 4077  10.069   4.772   3.262
  341DOPC   GL2 4078  10.341   4.646   3.264
  341DOPC   C1A 4079  10.048   4.840   3.720
  341DOPC   D2A 4080  10.073   4.934   4.219
  341DOPC   C3A 4081  10.256   5.259   4.524
  341DOPC   C4A 4082  10.501   5.548   4.845
  341DOPC   C1B 4083  10.542   4.940   3.559
  341DOPC   D2B 4084  10.699   5.334   3.863
  341DOPC   C3B 4085  10.736   5.344   4.343
  341DOPC   C4B 4086  10.672   5.066   4.760
  342DOPC   NC3 4087  13.290   0.322   2.847
  342DOPC   PO4 4088  13.673   0.200   2.820
  342DOPC   GL1 4089  13.578   0.292   3.232
  342DOPC   GL2 4090  13.531   0.572   3.175
  342DOPC   C1A 4091  13.195   0.244   3.477
  342DOPC   D2A 4092  12.924   0.217   3.914
  342DOPC   C3A 4093  13.042   0.257   4.376
  342DOPC   C4A 4094  13.385   0.263   4.746
  342DOPC   C1B 4095  13.457   0.653   3.597
  342DOPC   D2B 4096  13.348   0.568   4.075
  342DOPC   C3B 4097  13.303   0.715   4.523
  342DOPC   C4B 4098  13.234   0.679   5.031
  343DOPC   NC3 4099  17.489   8.098   2.660
  343DOPC   PO4 4100  17.192   7.905   2.854
  343DOPC   GL1 4101  17.277   7.908   3.290
  343DOPC   GL2 4102  17.589   7.902   3.215
  343DOPC   C1A 4103  17.227   8.010   3.745
  343DOPC   D2A 4104  17.172   8.043   4.265
  343DOPC   C3A 4105  17.016   7.957   4.721
  343DOPC   C4A 4106  16.970   7.799   5.202
  343DOPC   C1B 4107  17.717   7.913   3.654
  343DOPC   D2B 4108  17.809   7.790   4.129
  343DOPC   C3B 4109  17.653   8.097   4.466
  343DOPC   C4B 4110  17.449   8.548   4.576
  344DOPC   NC3 4111  19.801   4.971   2.630
  344DOPC   PO4 4112  19.505   5.198   2.780
  344DOPC   GL1 4113  19.671   5.131   3.147
  344DOPC   GL2 4114  19.640   4.824   3.112
  344DOPC   C1A 4115  19.940   5.246   3.486
  344DOPC   D2A 4116   0.120   5.334   3.951
  344DOPC   C3A 4117   0.128   5.217   4.412
  344DOPC   C4A 4118   0.104   5.194   4.910
  344DOPC   C1B 4119  19.788   4.748   3.522
  344DOPC   D2B 4120   0.039   4.803   3.954
  344DOPC   C3B 4121  19.772   4.802   4.330
  344DOPC   C4B 4122  19.619   5.087   4.701
  345DOPC   NC3 4123  19.144   4.250   2.687
  345DOPC   PO4 4124  19.232   3.989   2.981
  345DOPC   GL1 4125  18.997   3.973   3.323
  345DOPC   GL2 4126  18.873   4.249   3.241
  345DOPC   C1A 4127  18.975   4.057   3.752
  345DOPC   D2A 4128  18.913   4.239   4.226
  345DOPC   C3A 4129  18.997   4.267   4.695
  345DOPC   C4A 4130  19.060   4.241   5.194
  345DOPC   C1B 4131  18.800   4.515   3.604
  345DOPC   D2B 4132  18.787   4.735   4.061
  345DOPC   C3B 4133  18.611   4.587   4.468
  345DOPC   C4B 4134  18.447   4.406   4.888
  346DOPC   NC3 4135   6.793   2.828   2.746
  346DOPC   PO4 4136   6.477   3.077   2.784
  346DOPC   GL1 4137   6.403   2.857   3.137
  346DOPC   GL2 4138   6.541   2.596   3.055
  346DOPC   C1A 4139   6.168   2.878   3.526
  346DOPC   D2A 4140   6.047   2.879   4.027
  346DOPC   C3A 4141   6.339   2.981   4.406
  346DOPC   C4A 4142   6.676   3.034   4.791
  346DOPC   C1B 4143   6.555   2.522   3.483
  346DOPC   D2B 4144   6.495   2.609   3.973
  346DOPC   C3B 4145   6.458   2.462   4.419
  346DOPC   C4B 4146   6.497   2.272   4.882
  347DOPC   NC3 4147   0.372   7.106   2.541
  347DOPC   PO4 4148   0.255   7.465   2.671
  347DOPC   GL1 4149   0.158   7.266   3.071
  347DOPC   GL2 4150   0.177   7.553   3.156
  347DOPC   C1A 4151   0.228   7.072   3.480
  347DOPC   D2A 4152   0.260   6.976   3.978
  347DOPC   C3A 4153   0.297   7.110   4.438
  347DOPC   C4A 4154   0.319   7.247   4.921
  347DOPC   C1B 4155   0.261   7.559   3.597
  347DOPC   D2B 4156   0.320   7.507   4.095
  347DOPC   C3B 4157   0.447   7.597   4.542
  347DOPC   C4B 4158   0.678   7.625   4.976
  348DOPC   NC3 4159  15.889   8.877   2.372
  348DOPC   PO4 4160  15.934   9.258   2.505
  348DOPC   GL1 4161  15.898   9.412   2.928
  348DOPC   GL2 4162  15.934   9.102   2.993
  348DOPC   C1A 4163  15.753   9.455   3.343
  348DOPC   D2A 4164  15.639   9.554   3.840
  348DOPC   C3A 4165  15.575   9.364   4.283
  348DOPC   C4A 4166  15.749   9.194   4.724
  348DOPC   C1B 4167  15.781   8.956   3.401
  348DOPC   D2B 4168  15.601   9.010   3.881
  348DOPC   C3B 4169  15.485   8.774   4.285
  348DOPC   C4B 4170  15.426   8.448   4.675
  349DOPC   NC3 4171   0.101   4.185   2.883
  349DOPC   PO4 4172  19.944   4.548   2.887
  349DOPC   GL1 4173   0.167   4.612   3.235
  349DOPC   GL2 4174   0.383   4.400   3.174
  349DOPC   C1A 4175   0.202   4.453   3.638
  349DOPC   D2A 4176   0.155   4.102   3.981
  349DOPC   C3A 4177   0.166   4.430   4.323
  349DOPC   C4A 4178   0.059   4.696   4.733
  349DOPC   C1B 4179   0.385   4.027   3.443
  349DOPC   D2B 4180   0.544   3.797   3.878
  349DOPC   C3B 4181   0.565   4.066   4.285
  349DOPC   C4B 4182   0.526   4.352   4.698
  350DOPC   NC3 4183   6.534   5.052   2.721
  350DOPC   PO4 4184   6.317   4.796   2.927
  350DOPC   GL1 4185   6.529   4.892   3.272
  350DOPC   GL2 4186   6.578   5.178   3.166
  350DOPC   C1A 4187   6.724   4.907   3.674
  350DOPC   D2A 4188   6.849   5.023   4.145
  350DOPC   C3A 4189   6.633   4.913   4.548
  350DOPC   C4A 4190   6.384   4.739   4.933
  350DOPC   C1B 4191   6.725   5.392   3.525
  350DOPC   D2B 4192   6.758   5.547   4.006
  350DOPC   C3B 4193   6.670   5.420   4.463
  350DOPC   C4B 4194   6.721   5.251   4.942
  351DOPC   NC3 4195  19.001   5.111   2.630
  351DOPC   PO4 4196  19.197   4.786   2.772
  351DOPC   GL1 4197  19.238   5.005   3.156
  351DOPC   GL2 4198  19.130   5.289   3.052
  351DOPC   C1A 4199  19.292   4.946   3.613
  351DOPC   D2A 4200  19.302   4.912   4.131
  351DOPC   C3A 4201  19.098   4.785   4.549
  351DOPC   C4A 4202  18.858   4.700   4.984
  351DOPC   C1B 4203  18.843   5.466   3.368
  351DOPC   D2B 4204  18.499   5.480   3.756
  351DOPC   C3B 4205  18.580   5.291   4.187
  351DOPC   C4B 4206  18.692   5.071   4.628
  352DOPC   NC3 4207  17.084   9.120   2.504
  352DOPC   PO4 4208  16.822   8.983   2.778
  352DOPC   GL1 4209  16.823   9.270   3.098
  352DOPC   GL2 4210  17.121   9.302   2.975
  352DOPC   C1A 4211  16.909   9.050   3.471
  352DOPC   D2A 4212  17.046   8.817   3.898
  352DOPC   C3A 4213  17.167   8.950   4.334
  352DOPC   C4A 4214  17.261   9.098   4.795
  352DOPC   C1B 4215  17.386   9.142   3.291
  352DOPC   D2B 4216  17.531   8.988   3.752
  352DOPC   C3B 4217  17.664   8.946   4.211
  352DOPC   C4B 4218  17.766   8.960   4.693
  353DOPC   NC3 4219   1.134   5.741   2.654
  353DOPC   PO4 4220   1.141   5.387   2.845
  353DOPC   GL1 4221   1.458   5.449   3.085
  353DOPC   GL2 4222   1.572   5.702   2.925
  353DOPC   C1A 4223   1.243   5.507   3.492
  353DOPC   D2A 4224   1.150   5.429   3.981
  353DOPC   C3A 4225   1.204   5.626   4.407
  353DOPC   C4A 4226   1.340   5.903   4.798
  353DOPC   C1B 4227   1.550   5.884   3.326
  353DOPC   D2B 4228   1.366   5.936   3.797
  353DOPC   C3B 4229   1.413   6.086   4.244
  353DOPC   C4B 4230   1.461   6.376   4.650
  354DOPC   NC3 4231  12.663   3.134   2.698
  354DOPC   PO4 4232  13.062   3.155   2.762
  354DOPC   GL1 4233  13.081   3.407   3.115
  354DOPC   GL2 4234  12.781   3.289   3.130
  354DOPC   C1A 4235  13.007   3.493   3.538
  354DOPC   D2A 4236  12.745   3.345   3.934
  354DOPC   C3A 4237  12.815   3.376   4.389
  354DOPC   C4A 4238  12.800   3.359   4.872
  354DOPC   C1B 4239  12.503   3.308   3.465
  354DOPC   D2B 4240  12.250   3.406   3.899
  354DOPC   C3B 4241  12.301   3.324   4.364
  354DOPC   C4B 4242  12.333   3.097   4.797
  355DOPC   NC3 4243  19.206   0.883   2.975
  355DOPC   PO4 4244  19.570   1.057   2.921
  355DOPC   GL1 4245  19.720   1.038   3.330
  355DOPC   GL2 4246  19.490   0.821   3.378
  355DOPC   C1A 4247  19.848   0.913   3.738
  355DOPC   D2A 4248  19.569   0.869   4.147
  355DOPC   C3A 4249  19.691   0.700   4.562
  355DOPC   C4A 4250  19.758   0.581   5.051
  355DOPC   C1B 4251  19.518   0.531   3.740
  355DOPC   D2B 4252  19.460   0.354   4.216
  355DOPC   C3B 4253  19.573   0.215   4.655
  355DOPC   C4B 4254  19.813   0.065   5.053
  356DOPC   NC3 4255  13.743   1.233   2.695
  356DOPC   PO4 4256  13.606   0.904   2.871
  356DOPC   GL1 4257  13.652   1.001   3.304
  356DOPC   GL2 4258  13.612   1.286   3.198
  356DOPC   C1A 4259  13.747   1.036   3.750
  356DOPC   D2A 4260  13.673   0.968   4.249
  356DOPC   C3A 4261  13.868   1.314   4.523
  356DOPC   C4A 4262  14.102   1.702   4.743
  356DOPC   C1B 4263  13.572   1.491   3.588
  356DOPC   D2B 4264  13.613   1.454   4.086
  356DOPC   C3B 4265  13.352   1.324   4.462
  356DOPC   C4B 4266  13.094   1.097   4.803
  357DOPC   NC3 4267  16.811   7.813   2.510
  357DOPC   PO4 4268  16.601   7.616   2.779
  357DOPC   GL1 4269  16.576   7.691   3.192
  357DOPC   GL2 4270  16.799   7.912   3.132
  357DOPC   C1A 4271  16.431   7.797   3.597
  357DOPC   D2A 4272  16.327   7.920   4.078
  357DOPC   C3A 4273  16.398   7.765   4.518
  357DOPC   C4A 4274  16.492   7.632   4.992
  357DOPC   C1B 4275  16.803   8.149   3.509
  357DOPC   D2B 4276  16.831   8.326   3.982
  357DOPC   C3B 4277  16.676   8.209   4.415
  357DOPC   C4B 4278  16.472   8.142   4.872
  358DOPC   NC3 4279  18.166   2.520   2.794
  358DOPC   PO4 4280  17.772   2.530   2.881
  358DOPC   GL1 4281  17.809   2.294   3.249
  358DOPC   GL2 4282  18.075   2.208   3.138
  358DOPC   C1A 4283  17.901   2.532   3.626
  358DOPC   D2A 4284  18.100   2.708   4.040
  358DOPC   C3A 4285  18.093   2.762   4.503
  358DOPC   C4A 4286  18.120   2.797   4.983
  358DOPC   C1B 4287  18.337   2.496   3.368
  358DOPC   D2B 4288  18.577   2.701   3.784
  358DOPC   C3B 4289  18.558   2.679   4.263
  358DOPC   C4B 4290  18.528   2.534   4.744
  359DOPC   NC3 4291   3.953   1.262   2.527
  359DOPC   PO4 4292   3.608   1.256   2.701
  359DOPC   GL1 4293   3.598   1.052   3.057
  359DOPC   GL2 4294   3.329   0.977   3.134
  359DOPC   C1A 4295   3.755   1.238   3.419
  359DOPC   D2A 4296   3.809   1.476   3.857
  359DOPC   C3A 4297   3.696   1.332   4.287
  359DOPC   C4A 4298   3.592   1.116   4.713
  359DOPC   C1B 4299   3.253   1.156   3.527
  359DOPC   D2B 4300   3.285   1.376   3.969
  359DOPC   C3B 4301   3.145   1.200   4.370
  359DOPC   C4B 4302   3.077   0.978   4.791
  360DOPC   NC3 4303   5.909   1.433   2.680
  360DOPC   PO4 4304   5.813   1.039   2.650
  360DOPC   GL1 4305   5.869   1.093   3.087
  360DOPC   GL2 4306   5.591   1.224   3.057
  360DOPC   C1A 4307   5.954   0.954   3.535
  360DOPC   D2A 4308   6.003   0.751   4.008
  360DOPC   C3A 4309   6.079   0.846   4.474
  360DOPC   C4A 4310   6.304   0.954   4.919
  360DOPC   C1B 4311   5.495   1.190   3.495
  360DOPC   D2B 4312   5.605   1.081   3.975
  360DOPC   C3B 4313   5.636   1.196   4.430
  360DOPC   C4B 4314   5.454   1.464   4.809
  361DOPC   NC3 4315   3.233   1.577   2.600
  361DOPC   PO4 4316   3.124   1.279   2.846
  361DOPC   GL1 4317   3.338   1.425   3.164
  361DOPC   GL2 4318   3.600   1.524   3.077
  361DOPC   C1A 4319   3.322   1.654   3.539
  361DOPC   D2A 4320   3.464   1.864   3.969
  361DOPC   C3A 4321   3.327   1.693   4.385
  361DOPC   C4A 4322   3.234   1.486   4.822
  361DOPC   C1B 4323   3.826   1.756   3.418
  361DOPC   D2B 4324   3.965   1.974   3.870
  361DOPC   C3B 4325   3.854   1.851   4.328
  361DOPC   C4B 4326   3.637   1.813   4.788
  362DOPC   NC3 4327   3.497   9.922   2.665
  362DOPC   PO4 4328   3.828   0.115   2.788
  362DOPC   GL1 4329   3.775   9.867   3.110
  362DOPC   GL2 4330   3.732   9.602   2.990
  362DOPC   C1A 4331   3.636   9.882   3.531
  362DOPC   D2A 4332   3.268   9.979   3.864
  362DOPC   C3A 4333   3.286   9.750   4.270
  362DOPC   C4A 4334   3.389   9.478   4.674
  362DOPC   C1B 4335   3.515   9.430   3.336
  362DOPC   D2B 4336   3.386   9.466   3.818
  362DOPC   C3B 4337   3.331   9.235   4.223
  362DOPC   C4B 4338   3.177   8.992   4.617
  363DOPC   NC3 4339   2.013   5.610   2.663
  363DOPC   PO4 4340   1.992   5.964   2.860
  363DOPC   GL1 4341   2.030   5.992   3.306
  363DOPC   GL2 4342   2.333   5.972   3.243
  363DOPC   C1A 4343   1.891   5.790   3.693
  363DOPC   D2A 4344   1.634   5.605   4.096
  363DOPC   C3A 4345   1.755   5.770   4.517
  363DOPC   C4A 4346   1.874   6.113   4.853
  363DOPC   C1B 4347   2.426   5.594   3.468
  363DOPC   D2B 4348   2.389   5.382   3.915
  363DOPC   C3B 4349   2.364   5.596   4.337
  363DOPC   C4B 4350   2.326   5.852   4.770
  364DOPC   NC3 4351   1.878   2.862   2.411
  364DOPC   PO4 4352   1.663   2.915   2.732
  364DOPC   GL1 4353   1.892   2.839   3.086
  364DOPC   GL2 4354   2.122   2.679   2.980
  364DOPC   C1A 4355   1.777   2.732   3.522
  364DOPC   D2A 4356   1.818   2.713   4.041
  364DOPC   C3A 4357   1.840   2.838   4.521
  364DOPC   C4A 4358   1.790   3.014   5.000
  364DOPC   C1B 4359   2.199   2.480   3.381
  364DOPC   D2B 4360   2.146   2.329   3.869
  364DOPC   C3B 4361   2.173   2.458   4.331
  364DOPC   C4B 4362   2.266   2.641   4.789
  365DOPC   NC3 4363  11.147   6.596   2.736
  365DOPC   PO4 4364  11.048   6.979   2.818
  365DOPC   GL1 4365  11.155   6.977   3.246
  365DOPC   GL2 4366  11.296   6.706   3.172
  365DOPC   C1A 4367  11.154   6.982   3.699
  365DOPC   D2A 4368  11.158   6.863   4.181
  365DOPC   C3A 4369  10.990   6.833   4.629
  365DOPC   C4A 4370  10.719   6.796   5.042
  365DOPC   C1B 4371  11.370   6.552   3.567
  365DOPC   D2B 4372  11.472   6.483   4.054
  365DOPC   C3B 4373  11.407   6.566   4.513
  365DOPC   C4B 4374  11.246   6.525   4.983
  366DOPC   NC3 4375  18.280   1.597   2.516
  366DOPC   PO4 4376  18.008   1.360   2.691
  366DOPC   GL1 4377  18.022   1.387   3.116
  366DOPC   GL2 4378  18.340   1.346   3.053
  366DOPC   C1A 4379  17.779   1.382   3.512
  366DOPC   D2A 4380  17.707   1.246   4.014
  366DOPC   C3A 4381  17.767   1.315   4.499
  366DOPC   C4A 4382  17.822   1.418   5.006
  366DOPC   C1B 4383  18.517   1.282   3.436
  366DOPC   D2B 4384  18.604   1.422   3.902
  366DOPC   C3B 4385  18.278   1.413   4.218
  366DOPC   C4B 4386  18.239   1.268   4.690
  367DOPC   NC3 4387  13.884   6.054   2.530
  367DOPC   PO4 4388  14.063   6.242   2.843
  367DOPC   GL1 4389  14.311   6.090   3.202
  367DOPC   GL2 4390  14.264   5.797   3.106
  367DOPC   C1A 4391  14.399   6.098   3.661
  367DOPC   D2A 4392  14.347   6.204   4.153
  367DOPC   C3A 4393  14.168   5.937   4.496
  367DOPC   C4A 4394  13.796   5.830   4.807
  367DOPC   C1B 4395  14.255   5.619   3.520
  367DOPC   D2B 4396  14.281   5.712   4.020
  367DOPC   C3B 4397  14.564   5.533   4.363
  367DOPC   C4B 4398  14.741   5.349   4.800
  368DOPC   NC3 4399  16.003   6.256   2.550
  368DOPC   PO4 4400  16.322   6.240   2.802
  368DOPC   GL1 4401  16.162   6.231   3.202
  368DOPC   GL2 4402  16.203   5.904   3.197
  368DOPC   C1A 4403  16.206   6.489   3.580
  368DOPC   D2A 4404  16.281   6.543   4.086
  368DOPC   C3A 4405  16.100   6.313   4.469
  368DOPC   C4A 4406  15.959   5.991   4.848
  368DOPC   C1B 4407  15.945   5.614   3.458
  368DOPC   D2B 4408  15.605   5.349   3.754
  368DOPC   C3B 4409  15.542   5.345   4.240
  368DOPC   C4B 4410  15.651   5.581   4.676
  369DOPC   NC3 4411   2.139   4.673   2.779
  369DOPC   PO4 4412   2.508   4.513   2.792
  369DOPC   GL1 4413   2.620   4.579   3.212
  369DOPC   GL2 4414   2.407   4.811   3.163
  369DOPC   C1A 4415   2.545   4.704   3.638
  369DOPC   D2A 4416   2.343   4.895   4.064
  369DOPC   C3A 4417   2.320   4.972   4.532
  369DOPC   C4A 4418   2.364   4.952   5.021
  369DOPC   C1B 4419   2.216   5.071   3.491
  369DOPC   D2B 4420   1.891   5.264   3.811
  369DOPC   C3B 4421   1.985   5.258   4.269
  369DOPC   C4B 4422   2.071   5.410   4.733
  370DOPC   NC3 4423   2.396   2.143   2.427
  370DOPC   PO4 4424   2.617   2.292   2.733
  370DOPC   GL1 4425   2.546   2.221   3.177
  370DOPC   GL2 4426   2.686   1.946   3.124
  370DOPC   C1A 4427   2.600   2.277   3.640
  370DOPC   D2A 4428   2.590   2.210   4.163
  370DOPC   C3A 4429   2.616   2.284   4.649
  370DOPC   C4A 4430   2.830   2.368   5.110
  370DOPC   C1B 4431   2.818   1.811   3.525
  370DOPC   D2B 4432   2.948   1.787   4.017
  370DOPC   C3B 4433   2.802   1.833   4.470
  370DOPC   C4B 4434   2.467   1.818   4.843
  371DOPC   NC3 4435  17.423   3.789   2.663
  371DOPC   PO4 4436  17.679   4.105   2.699
  371DOPC   GL1 4437  17.560   4.198   3.071
  371DOPC   GL2 4438  17.351   3.959   3.089
  371DOPC   C1A 4439  17.703   4.091   3.468
  371DOPC   D2A 4440  17.644   3.782   3.862
  371DOPC   C3A 4441  17.511   3.776   4.320
  371DOPC   C4A 4442  17.347   3.718   4.789
  371DOPC   C1B 4443  17.308   3.713   3.459
  371DOPC   D2B 4444  17.166   3.517   3.901
  371DOPC   C3B 4445  17.161   3.386   4.355
  371DOPC   C4B 4446  17.053   3.257   4.823
  372DOPC   NC3 4447  18.473   2.104   2.846
  372DOPC   PO4 4448  18.212   1.806   2.947
  372DOPC   GL1 4449  18.474   1.713   3.271
  372DOPC   GL2 4450  18.446   2.008   3.307
  372DOPC   C1A 4451  18.216   1.616   3.618
  372DOPC   D2A 4452  17.842   1.718   3.918
  372DOPC   C3A 4453  17.963   1.780   4.354
  372DOPC   C4A 4454  18.422   1.761   4.565
  372DOPC   C1B 4455  18.129   2.095   3.603
  372DOPC   D2B 4456  17.954   2.212   4.062
  372DOPC   C3B 4457  18.117   2.247   4.514
  372DOPC   C4B 4458  18.164   2.293   5.015
  373DOPC   NC3 4459  11.295   7.432   2.493
  373DOPC   PO4 4460  11.505   7.100   2.594
  373DOPC   GL1 4461  11.526   7.060   3.028
  373DOPC   GL2 4462  11.328   7.315   3.000
  373DOPC   C1A 4463  11.608   7.031   3.480
  373DOPC   D2A 4464  11.553   7.193   3.976
  373DOPC   C3A 4465  11.469   7.162   4.455
  373DOPC   C4A 4466  11.385   7.048   4.937
  373DOPC   C1B 4467  11.227   7.422   3.417
  373DOPC   D2B 4468  11.111   7.475   3.900
  373DOPC   C3B 4469  11.279   7.638   4.311
  373DOPC   C4B 4470  11.339   7.649   4.808
  374DOPC   NC3 4471  19.795   5.539   2.583
  374DOPC   PO4 4472  19.904   5.851   2.793
  374DOPC   GL1 4473  19.496   5.976   2.933
  374DOPC   GL2 4474  19.413   5.672   2.880
  374DOPC   C1A 4475  19.450   6.132   3.355
  374DOPC   D2A 4476  19.391   6.299   3.826
  374DOPC   C3A 4477  19.572   6.213   4.250
  374DOPC   C4A 4478  19.729   6.063   4.694
  374DOPC   C1B 4479  19.489   5.598   3.313
  374DOPC   D2B 4480  19.749   5.654   3.748
  374DOPC   C3B 4481  19.843   5.690   4.222
  374DOPC   C4B 4482  19.816   5.565   4.706
  375DOPC   NC3 4483   8.086   7.439   2.863
  375DOPC   PO4 4484   7.758   7.655   2.944
  375DOPC   GL1 4485   7.944   7.813   3.321
  375DOPC   GL2 4486   8.011   7.512   3.337
  375DOPC   C1A 4487   7.975   7.905   3.755
  375DOPC   D2A 4488   8.208   7.756   4.198
  375DOPC   C3A 4489   8.182   7.463   4.599
  375DOPC   C4A 4490   8.112   7.149   5.001
  375DOPC   C1B 4491   7.948   7.415   3.758
  375DOPC   D2B 4492   7.821   7.420   4.232
  375DOPC   C3B 4493   7.888   7.056   4.525
  375DOPC   C4B 4494   8.249   6.766   4.705
  376DOPC   NC3 4495  14.569   0.722   2.776
  376DOPC   PO4 4496  14.721   0.360   2.834
  376DOPC   GL1 4497  14.899   0.305   3.213
  376DOPC   GL2 4498  15.172   0.308   3.079
  376DOPC   C1A 4499  14.904   0.216   3.648
  376DOPC   D2A 4500  14.915   0.092   4.134
  376DOPC   C3A 4501  14.814   0.480   4.373
  376DOPC   C4A 4502  14.592   0.811   4.668
  376DOPC   C1B 4503  15.389   0.371   3.458
  376DOPC   D2B 4504  15.579   0.490   3.906
  376DOPC   C3B 4505  15.330   0.505   4.310
  376DOPC   C4B 4506  15.128   0.618   4.754
  377DOPC   NC3 4507   3.642   5.458   2.556
  377DOPC   PO4 4508   3.986   5.400   2.740
  377DOPC   GL1 4509   3.820   5.718   2.983
  377DOPC   GL2 4510   3.520   5.703   2.950
  377DOPC   C1A 4511   3.805   5.867   3.397
  377DOPC   D2A 4512   3.556   6.052   3.800
  377DOPC   C3A 4513   3.636   6.125   4.266
  377DOPC   C4A 4514   3.813   6.028   4.730
  377DOPC   C1B 4515   3.309   5.884   3.339
  377DOPC   D2B 4516   3.047   6.004   3.756
  377DOPC   C3B 4517   3.126   6.075   4.203
  377DOPC   C4B 4518   3.286   6.054   4.666
  378DOPC   NC3 4519   3.422   3.169   2.595
  378DOPC   PO4 4520   3.741   3.238   2.833
  378DOPC   GL1 4521   3.536   3.319   3.241
  378DOPC   GL2 4522   3.568   3.002   3.224
  378DOPC   C1A 4523   3.569   3.259   3.688
  378DOPC   D2A 4524   3.714   3.050   4.136
  378DOPC   C3A 4525   3.740   3.044   4.620
  378DOPC   C4A 4526   3.510   2.936   5.058
  378DOPC   C1B 4527   3.766   2.780   3.573
  378DOPC   D2B 4528   3.850   2.491   3.982
  378DOPC   C3B 4529   3.984   2.621   4.415
  378DOPC   C4B 4530   3.872   2.590   4.907
  379DOPC   NC3 4531  16.120   7.536   2.716
  379DOPC   PO4 4532  16.288   7.222   2.907
  379DOPC   GL1 4533  16.152   7.444   3.253
  379DOPC   GL2 4534  15.878   7.478   3.106
  379DOPC   C1A 4535  16.044   7.478   3.694
  379DOPC   D2A 4536  15.999   7.529   4.193
  379DOPC   C3A 4537  16.051   7.385   4.638
  379DOPC   C4A 4538  16.049   7.332   5.124
  379DOPC   C1B 4539  15.658   7.280   3.410
  379DOPC   D2B 4540  15.622   7.241   3.913
  379DOPC   C3B 4541  15.714   7.111   4.363
  379DOPC   C4B 4542  15.759   7.005   4.855
  380DOPC   NC3 4543  11.161   5.095   2.316
  380DOPC   PO4 4544  11.170   5.105   2.720
  380DOPC   GL1 4545  11.216   5.391   3.058
  380DOPC   GL2 4546  11.522   5.387   3.015
  380DOPC   C1A 4547  11.147   5.319   3.519
  380DOPC   D2A 4548  11.190   5.252   4.041
  380DOPC   C3A 4549  11.111   4.992   4.453
  380DOPC   C4A 4550  10.991   4.674   4.829
  380DOPC   C1B 4551  11.665   5.281   3.435
  380DOPC   D2B 4552  11.711   5.172   3.948
  380DOPC   C3B 4553  11.587   5.184   4.423
  380DOPC   C4B 4554  11.539   5.272   4.917
  381DOPC   NC3 4555   7.871   8.113   2.738
  381DOPC   PO4 4556   8.175   7.969   2.947
  381DOPC   GL1 4557   8.145   8.213   3.235
  381DOPC   GL2 4558   7.900   8.360   3.179
  381DOPC   C1A 4559   8.355   8.195   3.617
  381DOPC   D2A 4560   8.560   8.187   4.069
  381DOPC   C3A 4561   8.537   8.023   4.508
  381DOPC   C4A 4562   8.417   8.026   4.984
  381DOPC   C1B 4563   7.904   8.410   3.623
  381DOPC   D2B 4564   8.037   8.250   4.103
  381DOPC   C3B 4565   8.042   8.194   4.592
  381DOPC   C4B 4566   7.934   8.253   5.089
  382DOPC   NC3 4567   8.250   8.764   2.278
  382DOPC   PO4 4568   8.330   9.034   2.559
  382DOPC   GL1 4569   8.118   9.044   2.913
  382DOPC   GL2 4570   7.897   8.862   2.854
  382DOPC   C1A 4571   8.120   9.142   3.343
  382DOPC   D2A 4572   8.200   9.201   3.814
  382DOPC   C3A 4573   8.214   9.071   4.250
  382DOPC   C4A 4574   8.330   8.977   4.710
  382DOPC   C1B 4575   7.778   8.789   3.286
  382DOPC   D2B 4576   7.788   8.878   3.791
  382DOPC   C3B 4577   7.817   8.704   4.229
  382DOPC   C4B 4578   7.766   8.606   4.715
  383DOPC   NC3 4579   1.134   3.944   2.636
  383DOPC   PO4 4580   1.415   3.649   2.689
  383DOPC   GL1 4581   1.544   3.725   3.112
  383DOPC   GL2 4582   1.328   3.504   3.204
  383DOPC   C1A 4583   1.750   3.641   3.499
  383DOPC   D2A 4584   1.853   3.717   3.991
  383DOPC   C3A 4585   1.721   3.754   4.444
  383DOPC   C4A 4586   1.473   3.810   4.882
  383DOPC   C1B 4587   1.229   3.425   3.665
  383DOPC   D2B 4588   1.015   3.194   4.095
  383DOPC   C3B 4589   0.888   3.181   4.576
  383DOPC   C4B 4590   0.785   3.150   5.082
  384DOPC   NC3 4591   4.105   5.856   2.618
  384DOPC   PO4 4592   3.862   6.152   2.733
  384DOPC   GL1 4593   4.079   6.261   3.105
  384DOPC   GL2 4594   4.181   5.972   3.082
  384DOPC   C1A 4595   4.154   6.231   3.532
  384DOPC   D2A 4596   4.056   5.995   3.948
  384DOPC   C3A 4597   4.123   6.208   4.360
  384DOPC   C4A 4598   4.077   6.496   4.764
  384DOPC   C1B 4599   4.293   5.744   3.457
  384DOPC   D2B 4600   4.458   5.660   3.928
  384DOPC   C3B 4601   4.612   5.826   4.349
  384DOPC   C4B 4602   4.794   6.020   4.778
  385DOPC   NC3 4603   7.758   4.841   2.469
  385DOPC   PO4 4604   7.521   4.603   2.695
  385DOPC   GL1 4605   7.380   4.737   3.105
  385DOPC   GL2 4606   7.470   5.020   2.984
  385DOPC   C1A 4607   7.326   4.771   3.571
  385DOPC   D2A 4608   7.362   4.888   4.077
  385DOPC   C3A 4609   7.192   4.945   4.533
  385DOPC   C4A 4610   7.264   5.136   4.999
  385DOPC   C1B 4611   7.375   5.252   3.356
  385DOPC   D2B 4612   7.166   5.289   3.817
  385DOPC   C3B 4613   7.178   5.408   4.282
  385DOPC   C4B 4614   7.082   5.554   4.754
  386DOPC   NC3 4615   0.939   2.394   2.401
  386DOPC   PO4 4616   0.682   2.238   2.672
  386DOPC   GL1 4617   0.922   2.406   2.976
  386DOPC   GL2 4618   1.189   2.325   2.828
  386DOPC   C1A 4619   0.922   2.148   3.332
  386DOPC   D2A 4620   0.802   1.874   3.719
  386DOPC   C3A 4621   0.902   1.940   4.169
  386DOPC   C4A 4622   1.020   1.984   4.653
  386DOPC   C1B 4623   1.404   2.077   3.141
  386DOPC   D2B 4624   1.335   1.917   3.631
  386DOPC   C3B 4625   1.402   1.830   4.104
  386DOPC   C4B 4626   1.462   1.711   4.593
  387DOPC   NC3 4627  11.201   8.685   2.558
  387DOPC   PO4 4628  11.451   8.937   2.746
  387DOPC   GL1 4629  11.251   8.766   3.115
  387DOPC   GL2 4630  11.206   9.060   3.160
  387DOPC   C1A 4631  11.127   8.574   3.517
  387DOPC   D2A 4632  11.154   8.449   3.987
  387DOPC   C3A 4633  11.278   8.632   4.397
  387DOPC   C4A 4634  11.465   8.866   4.798
  387DOPC   C1B 4635  11.374   9.135   3.562
  387DOPC   D2B 4636  11.402   8.997   4.047
  387DOPC   C3B 4637  11.144   9.112   4.440
  387DOPC   C4B 4638  10.844   9.301   4.788
  388DOPC   NC3 4639   5.922   7.847   2.618
  388DOPC   PO4 4640   5.576   7.990   2.764
  388DOPC   GL1 4641   5.693   8.076   3.138
  388DOPC   GL2 4642   5.987   8.013   3.104
  388DOPC   C1A 4643   5.661   7.867   3.513
  388DOPC   D2A 4644   5.587   7.589   3.919
  388DOPC   C3A 4645   5.696   7.885   4.278
  388DOPC   C4A 4646   5.678   8.136   4.714
  388DOPC   C1B 4647   6.108   8.128   3.528
  388DOPC   D2B 4648   6.096   8.395   3.956
  388DOPC   C3B 4649   5.956   8.459   4.412
  388DOPC   C4B 4650   5.889   8.597   4.886
  389DOPC   NC3 4651   8.956   2.056   2.623
  389DOPC   PO4 4652   8.805   1.680   2.682
  389DOPC   GL1 4653   8.778   1.619   3.133
  389DOPC   GL2 4654   8.674   1.910   3.073
  389DOPC   C1A 4655   8.949   1.599   3.567
  389DOPC   D2A 4656   9.003   1.599   4.087
  389DOPC   C3A 4657   8.942   1.659   4.556
  389DOPC   C4A 4658   9.001   1.841   5.027
  389DOPC   C1B 4659   8.846   2.099   3.429
  389DOPC   D2B 4660   9.025   2.263   3.863
  389DOPC   C3B 4661   8.902   2.113   4.285
  389DOPC   C4B 4662   8.672   2.069   4.714
  390DOPC   NC3 4663  18.092   6.022   2.617
  390DOPC   PO4 4664  17.946   5.712   2.814
  390DOPC   GL1 4665  18.113   5.792   3.148
  390DOPC   GL2 4666  18.176   6.100   3.081
  390DOPC   C1A 4667  18.032   5.621   3.552
  390DOPC   D2A 4668  18.020   5.319   3.964
  390DOPC   C3A 4669  17.973   5.359   4.436
  390DOPC   C4A 4670  18.001   5.506   4.916
  390DOPC   C1B 4671  18.040   6.284   3.450
  390DOPC   D2B 4672  17.948   6.413   3.929
  390DOPC   C3B 4673  18.040   6.172   4.326
  390DOPC   C4B 4674  18.237   5.974   4.747
  391DOPC   NC3 4675  18.913   6.409   2.550
  391DOPC   PO4 4676  19.249   6.349   2.768
  391DOPC   GL1 4677  19.078   6.327   3.152
  391DOPC   GL2 4678  18.806   6.273   3.034
  391DOPC   C1A 4679  18.989   6.484   3.562
  391DOPC   D2A 4680  18.892   6.678   4.012
  391DOPC   C3A 4681  18.929   6.668   4.486
  391DOPC   C4A 4682  19.011   6.673   4.978
  391DOPC   C1B 4683  18.544   6.349   3.399
  391DOPC   D2B 4684  18.422   6.561   3.838
  391DOPC   C3B 4685  18.495   6.448   4.286
  391DOPC   C4B 4686  18.658   6.304   4.729
  392DOPC   NC3 4687  18.593   9.190   2.761
  392DOPC   PO4 4688  18.288   9.360   2.946
  392DOPC   GL1 4689  18.480   9.094   3.252
  392DOPC   GL2 4690  18.714   9.270   3.258
  392DOPC   C1A 4691  18.457   9.074   3.684
  392DOPC   D2A 4692  18.660   9.079   4.138
  392DOPC   C3A 4693  18.616   9.161   4.608
  392DOPC   C4A 4694  18.560   9.127   5.108
  392DOPC   C1B 4695  18.850   9.427   3.668
  392DOPC   D2B 4696  19.154   9.620   4.035
  392DOPC   C3B 4697  19.103   9.587   4.500
  392DOPC   C4B 4698  18.887   9.496   4.928
  393DOPC   NC3 4699  14.206   1.323   2.502
  393DOPC   PO4 4700  14.449   1.206   2.796
  393DOPC   GL1 4701  14.302   0.958   3.148
  393DOPC   GL2 4702  14.026   1.045   3.048
  393DOPC   C1A 4703  14.282   0.929   3.617
  393DOPC   D2A 4704  14.169   0.993   4.113
  393DOPC   C3A 4705  14.074   0.849   4.556
  393DOPC   C4A 4706  14.121   0.851   5.047
  393DOPC   C1B 4707  14.027   1.308   3.397
  393DOPC   D2B 4708  14.110   1.462   3.868
  393DOPC   C3B 4709  14.309   1.479   4.300
  393DOPC   C4B 4710  14.340   1.248   4.745
  394DOPC   NC3 4711   1.304   4.945   2.631
  394DOPC   PO4 4712   0.926   4.921   2.778
  394DOPC   GL1 4713   0.938   5.038   3.201
  394DOPC   GL2 4714   1.244   5.063   3.212
  394DOPC   C1A 4715   0.893   5.019   3.650
  394DOPC   D2A 4716   0.991   4.961   4.152
  394DOPC   C3A 4717   0.957   5.020   4.626
  394DOPC   C4A 4718   0.876   5.043   5.135
  394DOPC   C1B 4719   1.419   5.070   3.656
  394DOPC   D2B 4720   1.517   5.089   4.153
  394DOPC   C3B 4721   1.562   5.288   4.585
  394DOPC   C4B 4722   1.605   5.505   5.039
  395DOPC   NC3 4723   2.635   2.992   2.648
  395DOPC   PO4 4724   2.936   3.252   2.668
  395DOPC   GL1 4725   3.162   3.111   3.035
  395DOPC   GL2 4726   2.934   2.880   3.004
  395DOPC   C1A 4727   3.063   3.252   3.466
  395DOPC   D2A 4728   2.799   3.465   3.858
  395DOPC   C3A 4729   2.775   3.378   4.331
  395DOPC   C4A 4730   2.843   3.238   4.804
  395DOPC   C1B 4731   2.568   2.826   3.284
  395DOPC   D2B 4732   2.260   2.857   3.707
  395DOPC   C3B 4733   2.247   2.967   4.173
  395DOPC   C4B 4734   2.349   3.115   4.634
  396DOPC   NC3 4735   6.534   9.421   2.477
  396DOPC   PO4 4736   6.257   9.413   2.774
  396DOPC   GL1 4737   6.262   9.671   3.117
  396DOPC   GL2 4738   6.573   9.613   3.118
  396DOPC   C1A 4739   6.115   9.655   3.538
  396DOPC   D2A 4740   5.936   9.709   4.010
  396DOPC   C3A 4741   6.229   9.729   4.396
  396DOPC   C4A 4742   6.528   9.671   4.808
  396DOPC   C1B 4743   6.696   9.549   3.539
  396DOPC   D2B 4744   6.772   9.731   3.993
  396DOPC   C3B 4745   6.768   9.898   4.417
  396DOPC   C4B 4746   6.800   0.122   4.856
  397DOPC   NC3 4747   4.525   0.486   2.480
  397DOPC   PO4 4748   4.693   0.264   2.770
  397DOPC   GL1 4749   4.567   0.635   2.968
  397DOPC   GL2 4750   4.268   0.540   2.893
  397DOPC   C1A 4751   4.616   0.493   3.391
  397DOPC   D2A 4752   4.501   0.268   3.822
  397DOPC   C3A 4753   4.585   0.389   4.269
  397DOPC   C4A 4754   4.615   0.628   4.700
  397DOPC   C1B 4755   4.091   0.561   3.315
  397DOPC   D2B 4756   4.012   0.637   3.825
  397DOPC   C3B 4757   3.886   0.441   4.260
  397DOPC   C4B 4758   3.736   0.204   4.689
  398DOPC   NC3 4759  14.161   3.048   2.687
  398DOPC   PO4 4760  14.108   2.675   2.830
  398DOPC   GL1 4761  14.267   2.899   3.198
  398DOPC   GL2 4762  14.545   2.835   3.054
  398DOPC   C1A 4763  14.311   2.962   3.671
  398DOPC   D2A 4764  14.343   2.944   4.175
  398DOPC   C3A 4765  14.278   3.040   4.648
  398DOPC   C4A 4766  14.189   3.298   5.084
  398DOPC   C1B 4767  14.600   2.628   3.438
  398DOPC   D2B 4768  14.658   2.607   3.938
  398DOPC   C3B 4769  14.571   2.552   4.397
  398DOPC   C4B 4770  14.391   2.562   4.845
  399DOPC   NC3 4771  12.660   3.923   2.578
  399DOPC   PO4 4772  12.794   3.620   2.804
  399DOPC   GL1 4773  12.616   3.695   3.217
  399DOPC   GL2 4774  12.532   3.960   3.090
  399DOPC   C1A 4775  12.552   3.764   3.667
  399DOPC   D2A 4776  12.429   3.793   4.166
  399DOPC   C3A 4777  12.498   3.721   4.637
  399DOPC   C4A 4778  12.700   3.878   5.067
  399DOPC   C1B 4779  12.453   4.233   3.449
  399DOPC   D2B 4780  12.323   4.468   3.896
  399DOPC   C3B 4781  12.435   4.549   4.364
  399DOPC   C4B 4782  12.783   4.596   4.733
  400DOPC   NC3 4783  12.775   5.467   3.038
  400DOPC   PO4 4784  12.443   5.673   3.117
  400DOPC   GL1 4785  12.678   5.696   3.467
  400DOPC   GL2 4786  12.409   5.689   3.642
  400DOPC   C1A 4787  12.891   5.499   3.784
  400DOPC   D2A 4788  13.136   5.382   4.210
  400DOPC   C3A 4789  12.967   5.447   4.650
  400DOPC   C4A 4790  12.709   5.239   5.017
  400DOPC   C1B 4791  12.442   5.472   4.049
  400DOPC   D2B 4792  12.484   5.206   4.504
  400DOPC   C3B 4793  12.375   4.881   4.860
  400DOPC   C4B 4794  12.302   4.783   5.348
  401DOPC   NC3 4795  12.893   1.748   2.397
  401DOPC   PO4 4796  12.605   1.634   2.663
  401DOPC   GL1 4797  12.704   1.450   3.068
  401DOPC   GL2 4798  12.399   1.490   3.147
  401DOPC   C1A 4799  12.948   1.532   3.445
  401DOPC   D2A 4800  13.116   1.546   3.924
  401DOPC   C3A 4801  12.911   1.624   4.354
  401DOPC   C4A 4802  12.825   1.700   4.844
  401DOPC   C1B 4803  12.412   1.629   3.584
  401DOPC   D2B 4804  12.532   1.848   4.032
  401DOPC   C3B 4805  12.489   1.957   4.494
  401DOPC   C4B 4806  12.470   2.069   4.989
  402DOPC   NC3 4807  15.844   1.450   2.698
  402DOPC   PO4 4808  16.223   1.332   2.637
  402DOPC   GL1 4809  16.420   1.142   2.988
  402DOPC   GL2 4810  16.110   1.122   3.073
  402DOPC   C1A 4811  16.473   1.052   3.405
  402DOPC   D2A 4812  16.320   1.008   3.877
  402DOPC   C3A 4813  16.187   1.268   4.242
  402DOPC   C4A 4814  16.066   1.603   4.598
  402DOPC   C1B 4815  15.979   1.251   3.496
  402DOPC   D2B 4816  15.835   1.489   3.918
  402DOPC   C3B 4817  15.696   1.342   4.349
  402DOPC   C4B 4818  15.892   1.135   4.765
  403DOPC   NC3 4819  12.561   8.246   2.452
  403DOPC   PO4 4820  12.420   8.329   2.813
  403DOPC   GL1 4821  12.557   8.158   3.138
  403DOPC   GL2 4822  12.756   7.962   3.128
  403DOPC   C1A 4823  12.563   8.349   3.532
  403DOPC   D2A 4824  12.527   8.547   3.987
  403DOPC   C3A 4825  12.578   8.301   4.396
  403DOPC   C4A 4826  12.372   8.043   4.777
  403DOPC   C1B 4827  12.699   7.802   3.538
  403DOPC   D2B 4828  12.697   7.732   4.042
  403DOPC   C3B 4829  12.694   7.752   4.515
  403DOPC   C4B 4830  12.828   7.906   4.978
  404DOPC   NC3 4831   5.178   1.224   2.725
  404DOPC   PO4 4832   4.822   1.127   2.891
  404DOPC   GL1 4833   4.992   0.840   3.164
  404DOPC   GL2 4834   5.174   1.089   3.193
  404DOPC   C1A 4835   4.905   0.889   3.585
  404DOPC   D2A 4836   4.865   1.197   3.966
  404DOPC   C3A 4837   4.806   1.008   4.383
  404DOPC   C4A 4838   5.196   1.032   4.667
  404DOPC   C1B 4839   4.985   1.383   3.487
  404DOPC   D2B 4840   4.924   1.722   3.858
  404DOPC   C3B 4841   4.830   1.607   4.302
  404DOPC   C4B 4842   4.858   1.447   4.765
  405DOPC   NC3 4843  14.954   8.791   2.400
  405DOPC   PO4 4844  14.974   8.522   2.710
  405DOPC   GL1 4845  14.773   8.466   3.138
  405DOPC   GL2 4846  14.883   8.736   3.201
  405DOPC   C1A 4847  14.718   8.343   3.581
  405DOPC   D2A 4848  14.695   8.284   4.087
  405DOPC   C3A 4849  14.794   8.644   4.404
  405DOPC   C4A 4850  14.790   8.976   4.786
  405DOPC   C1B 4851  14.859   8.865   3.643
  405DOPC   D2B 4852  14.757   9.179   4.040
  405DOPC   C3B 4853  15.059   9.176   4.400
  405DOPC   C4B 4854  15.308   8.945   4.758
  406DOPC   NC3 4855  16.795   7.177   2.629
  406DOPC   PO4 4856  17.101   7.427   2.681
  406DOPC   GL1 4857  16.960   7.498   3.074
  406DOPC   GL2 4858  16.746   7.276   3.080
  406DOPC   C1A 4859  16.937   7.649   3.493
  406DOPC   D2A 4860  16.820   7.799   3.954
  406DOPC   C3A 4861  16.897   7.600   4.365
  406DOPC   C4A 4862  16.974   7.431   4.824
  406DOPC   C1B 4863  16.560   7.309   3.488
  406DOPC   D2B 4864  16.473   7.425   3.961
  406DOPC   C3B 4865  16.492   7.280   4.390
  406DOPC   C4B 4866  16.532   7.144   4.853
  407DOPC   NC3 4867   1.858   3.854   2.742
  407DOPC   PO4 4868   1.850   4.244   2.819
  407DOPC   GL1 4869   2.073   4.102   3.180
  407DOPC   GL2 4870   2.231   4.354   3.129
  407DOPC   C1A 4871   1.956   4.108   3.627
  407DOPC   D2A 4872   1.786   4.261   4.085
  407DOPC   C3A 4873   1.784   4.245   4.563
  407DOPC   C4A 4874   1.818   4.142   5.050
  407DOPC   C1B 4875   2.079   4.579   3.470
  407DOPC   D2B 4876   1.862   4.757   3.889
  407DOPC   C3B 4877   1.912   4.711   4.354
  407DOPC   C4B 4878   2.072   4.587   4.814
  408DOPC   NC3 4879  17.151   4.902   2.498
  408DOPC   PO4 4880  16.778   4.805   2.602
  408DOPC   GL1 4881  16.950   4.667   2.937
  408DOPC   GL2 4882  17.140   4.917   2.957
  408DOPC   C1A 4883  16.933   4.652   3.385
  408DOPC   D2A 4884  17.109   4.549   3.852
  408DOPC   C3A 4885  17.236   4.683   4.292
  408DOPC   C4A 4886  17.307   4.874   4.754
  408DOPC   C1B 4887  17.285   5.005   3.368
  408DOPC   D2B 4888  17.303   5.016   3.870
  408DOPC   C3B 4889  17.466   5.190   4.273
  408DOPC   C4B 4890  17.546   5.353   4.730
  409DOPC   NC3 4891   7.661   7.215   2.593
  409DOPC   PO4 4892   7.337   7.395   2.729
  409DOPC   GL1 4893   7.486   7.117   3.024
  409DOPC   GL2 4894   7.203   7.123   3.127
  409DOPC   C1A 4895   7.706   7.142   3.397
  409DOPC   D2A 4896   7.497   7.202   3.853
  409DOPC   C3A 4897   7.402   7.174   4.315
  409DOPC   C4A 4898   7.382   6.976   4.764
  409DOPC   C1B 4899   7.278   7.434   3.428
  409DOPC   D2B 4900   7.521   7.696   3.771
  409DOPC   C3B 4901   7.361   7.698   4.208
  409DOPC   C4B 4902   7.284   7.582   4.683
  410DOPC   NC3 4903  16.624   5.685   2.617
  410DOPC   PO4 4904  16.486   5.356   2.785
  410DOPC   GL1 4905  16.556   5.621   3.088
  410DOPC   GL2 4906  16.858   5.678   3.035
  410DOPC   C1A 4907  16.451   5.430   3.458
  410DOPC   D2A 4908  16.422   5.233   3.907
  410DOPC   C3A 4909  16.553   5.350   4.346
  410DOPC   C4A 4910  16.841   5.399   4.745
  410DOPC   C1B 4911  17.096   5.851   3.393
  410DOPC   D2B 4912  17.199   5.920   3.896
  410DOPC   C3B 4913  17.021   5.975   4.349
  410DOPC   C4B 4914  16.717   5.902   4.756
  411DOPC   NC3 4915  15.182   2.586   2.577
  411DOPC   PO4 4916  14.870   2.501   2.810
  411DOPC   GL1 4917  15.043   2.584   3.206
  411DOPC   GL2 4918  15.019   2.873   3.110
  411DOPC   C1A 4919  15.067   2.599   3.656
  411DOPC   D2A 4920  15.114   2.685   4.147
  411DOPC   C3A 4921  15.046   2.527   4.589
  411DOPC   C4A 4922  15.341   2.386   4.961
  411DOPC   C1B 4923  14.859   3.042   3.483
  411DOPC   D2B 4924  14.796   3.096   3.980
  411DOPC   C3B 4925  14.829   2.998   4.440
  411DOPC   C4B 4926  15.023   2.956   4.884
  412DOPC   NC3 4927  13.523   6.946   2.830
  412DOPC   PO4 4928  13.223   6.708   2.724
  412DOPC   GL1 4929  13.356   6.503   3.058
  412DOPC   GL2 4930  13.653   6.562   3.070
  412DOPC   C1A 4931  13.331   6.531   3.488
  412DOPC   D2A 4932  13.453   6.448   3.971
  412DOPC   C3A 4933  13.366   6.575   4.419
  412DOPC   C4A 4934  13.071   6.559   4.825
  412DOPC   C1B 4935  13.781   6.751   3.457
  412DOPC   D2B 4936  13.888   6.838   3.945
  412DOPC   C3B 4937  13.829   6.822   4.413
  412DOPC   C4B 4938  13.582   6.772   4.842
  413DOPC   NC3 4939  15.546   3.869   2.627
  413DOPC   PO4 4940  15.870   4.091   2.547
  413DOPC   GL1 4941  15.754   4.319   2.918
  413DOPC   GL2 4942  15.784   4.026   3.033
  413DOPC   C1A 4943  15.561   4.386   3.310
  413DOPC   D2A 4944  15.388   4.396   3.780
  413DOPC   C3A 4945  15.497   4.371   4.235
  413DOPC   C4A 4946  15.580   4.358   4.725
  413DOPC   C1B 4947  15.849   4.018   3.484
  413DOPC   D2B 4948  15.805   3.869   3.973
  413DOPC   C3B 4949  15.884   4.091   4.391
  413DOPC   C4B 4950  16.078   4.278   4.818
  414DOPC   NC3 4951   3.916   9.661   2.573
  414DOPC   PO4 4952   4.251   9.464   2.549
  414DOPC   GL1 4953   4.196   9.539   2.978
  414DOPC   GL2 4954   4.190   9.840   2.943
  414DOPC   C1A 4955   4.011   9.546   3.383
  414DOPC   D2A 4956   3.893   9.570   3.872
  414DOPC   C3A 4957   4.128   9.472   4.282
  414DOPC   C4A 4958   4.249   9.343   4.757
  414DOPC   C1B 4959   4.142   0.038   3.362
  414DOPC   D2B 4960   3.973   0.127   3.835
  414DOPC   C3B 4961   3.832   9.925   4.240
  414DOPC   C4B 4962   3.859   9.693   4.676
  415DOPC   NC3 4963   5.989   2.959   2.961
  415DOPC   PO4 4964   6.106   2.581   2.873
  415DOPC   GL1 4965   6.187   2.358   3.249
  415DOPC   GL2 4966   5.898   2.265   3.216
  415DOPC   C1A 4967   6.100   2.390   3.686
  415DOPC   D2A 4968   5.792   2.417   4.077
  415DOPC   C3A 4969   5.980   2.626   4.462
  415DOPC   C4A 4970   6.277   2.729   4.849
  415DOPC   C1B 4971   5.613   2.487   3.484
  415DOPC   D2B 4972   5.352   2.694   3.857
  415DOPC   C3B 4973   5.530   2.806   4.278
  415DOPC   C4B 4974   5.679   2.899   4.751
  416DOPC   NC3 4975  14.285   4.054   2.548
  416DOPC   PO4 4976  14.664   3.922   2.582
  416DOPC   GL1 4977  14.833   4.093   2.971
  416DOPC   GL2 4978  14.527   4.214   3.002
  416DOPC   C1A 4979  14.829   4.155   3.409
  416DOPC   D2A 4980  14.694   4.317   3.886
  416DOPC   C3A 4981  14.682   4.278   4.364
  416DOPC   C4A 4982  14.540   4.203   4.840
  416DOPC   C1B 4983  14.319   4.242   3.428
  416DOPC   D2B 4984  14.181   4.183   3.915
  416DOPC   C3B 4985  14.178   4.224   4.397
  416DOPC   C4B 4986  14.070   4.477   4.818
  417DOPC   NC3 4987   5.501   2.391   2.615
  417DOPC   PO4 4988   5.699   2.105   2.827
  417DOPC   GL1 4989   5.580   1.903   3.189
  417DOPC   GL2 4990   5.748   1.645   3.149
  417DOPC   C1A 4991   5.765   2.008   3.588
  417DOPC   D2A 4992   6.039   1.965   4.001
  417DOPC   C3A 4993   6.047   2.134   4.439
  417DOPC   C4A 4994   5.991   2.321   4.897
  417DOPC   C1B 4995   5.894   1.508   3.571
  417DOPC   D2B 4996   5.953   1.452   4.081
  417DOPC   C3B 4997   5.796   1.695   4.464
  417DOPC   C4B 4998   5.638   1.949   4.863
  418DOPC   NC3 4999   1.931   3.364   2.572
  418DOPC   PO4 5000   2.157   3.093   2.753
  418DOPC   GL1 5001   2.200   3.296   3.074
  418DOPC   GL2 5002   2.120   3.580   3.017
  418DOPC   C1A 5003   1.988   3.184   3.417
  418DOPC   D2A 5004   1.694   3.170   3.807
  418DOPC   C3A 5005   1.766   3.262   4.253
  418DOPC   C4A 5006   1.540   3.329   4.688
  418DOPC   C1B 5007   2.252   3.736   3.410
  418DOPC   D2B 5008   2.333   3.856   3.890
  418DOPC   C3B 5009   2.185   3.999   4.313
  418DOPC   C4B 5010   2.248   4.078   4.796
  419DOPC   NC3 5011   6.985   7.205   2.431
  419DOPC   PO4 5012   6.799   7.346   2.752
  419DOPC   GL1 5013   6.783   7.020   3.040
  419DOPC   GL2 5014   6.480   7.056   3.034
  419DOPC   C1A 5015   6.880   7.105   3.485
  419DOPC   D2A 5016   6.987   7.181   3.982
  419DOPC   C3A 5017   6.907   7.336   4.428
  419DOPC   C4A 5018   6.862   7.396   4.931
  419DOPC   C1B 5019   6.344   7.001   3.450
  419DOPC   D2B 5020   6.408   7.015   3.945
  419DOPC   C3B 5021   6.401   7.215   4.382
  419DOPC   C4B 5022   6.447   7.595   4.710
  420DOPC   NC3 5023  11.952   6.565   2.576
  420DOPC   PO4 5024  11.643   6.635   2.837
  420DOPC   GL1 5025  11.755   6.616   3.266
  420DOPC   GL2 5026  12.012   6.732   3.147
  420DOPC   C1A 5027  11.852   6.523   3.714
  420DOPC   D2A 5028  11.994   6.413   4.181
  420DOPC   C3A 5029  11.888   6.463   4.635
  420DOPC   C4A 5030  11.800   6.473   5.130
  420DOPC   C1B 5031  12.110   6.900   3.517
  420DOPC   D2B 5032  12.238   6.845   3.996
  420DOPC   C3B 5033  12.318   6.746   4.445
  420DOPC   C4B 5034  12.286   6.572   4.913
  421DOPC   NC3 5035  12.030   3.144   2.654
  421DOPC   PO4 5036  11.896   3.501   2.782
  421DOPC   GL1 5037  12.226   3.579   3.044
  421DOPC   GL2 5038  12.342   3.316   2.984
  421DOPC   C1A 5039  12.049   3.571   3.458
  421DOPC   D2A 5040  11.785   3.604   3.887
  421DOPC   C3A 5041  11.914   3.671   4.332
  421DOPC   C4A 5042  11.860   3.793   4.801
  421DOPC   C1B 5043  12.069   3.110   3.262
  421DOPC   D2B 5044  11.915   3.080   3.729
  421DOPC   C3B 5045  11.850   3.173   4.184
  421DOPC   C4B 5046  11.838   3.265   4.679
  422DOPC   NC3 5047   9.509   1.191   2.609
  422DOPC   PO4 5048   9.867   1.056   2.721
  422DOPC   GL1 5049   9.667   0.840   3.020
  422DOPC   GL2 5050   9.432   1.033   3.046
  422DOPC   C1A 5051   9.872   0.865   3.415
  422DOPC   D2A 5052  10.057   0.866   3.885
  422DOPC   C3A 5053   9.956   0.884   4.346
  422DOPC   C4A 5054   9.703   1.105   4.716
  422DOPC   C1B 5055   9.467   1.291   3.419
  422DOPC   D2B 5056   9.474   1.510   3.878
  422DOPC   C3B 5057   9.417   1.450   4.352
  422DOPC   C4B 5058   9.324   1.452   4.842
  423DOPC   NC3 5059  10.069   8.200   2.626
  423DOPC   PO4 5060  10.373   8.389   2.819
  423DOPC   GL1 5061  10.340   8.054   3.056
  423DOPC   GL2 5062  10.031   8.082   3.081
  423DOPC   C1A 5063  10.370   8.055   3.494
  423DOPC   D2A 5064  10.377   8.052   4.002
  423DOPC   C3A 5065  10.091   8.005   4.383
  423DOPC   C4A 5066   9.892   8.015   4.836
  423DOPC   C1B 5067   9.867   7.987   3.503
  423DOPC   D2B 5068   9.780   7.821   3.984
  423DOPC   C3B 5069   9.564   7.970   4.384
  423DOPC   C4B 5070   9.415   8.203   4.802
  424DOPC   NC3 5071  18.305   0.928   2.822
  424DOPC   PO4 5072  18.692   0.896   2.954
  424DOPC   GL1 5073  18.753   0.894   3.382
  424DOPC   GL2 5074  19.039   0.876   3.401
  424DOPC   C1A 5075  18.631   0.931   3.814
  424DOPC   D2A 5076  18.663   1.060   4.305
  424DOPC   C3A 5077  18.764   0.821   4.706
  424DOPC   C4A 5078  18.880   0.612   5.138
  424DOPC   C1B 5079  19.137   0.843   3.840
  424DOPC   D2B 5080  19.109   0.707   4.329
  424DOPC   C3B 5081  19.006   0.348   4.634
  424DOPC   C4B 5082  18.777   0.091   4.998
  425DOPC   NC3 5083  11.965   7.042   2.809
  425DOPC   PO4 5084  12.307   7.189   2.973
  425DOPC   GL1 5085  12.128   7.333   3.365
  425DOPC   GL2 5086  11.861   7.314   3.207
  425DOPC   C1A 5087  12.035   7.281   3.823
  425DOPC   D2A 5088  12.006   7.176   4.326
  425DOPC   C3A 5089  12.139   7.084   4.783
  425DOPC   C4A 5090  12.214   7.345   5.210
  425DOPC   C1B 5091  11.707   7.550   3.552
  425DOPC   D2B 5092  11.749   7.706   4.027
  425DOPC   C3B 5093  11.759   7.603   4.488
  425DOPC   C4B 5094  11.766   7.406   4.944
  426DOPC   NC3 5095   0.553   8.546   2.547
  426DOPC   PO4 5096   0.217   8.363   2.668
  426DOPC   GL1 5097   0.398   8.252   3.036
  426DOPC   GL2 5098   0.629   8.460   3.017
  426DOPC   C1A 5099   0.357   8.323   3.458
  426DOPC   D2A 5100   0.545   8.318   3.910
  426DOPC   C3A 5101   0.394   8.398   4.343
  426DOPC   C4A 5102   0.205   8.663   4.704
  426DOPC   C1B 5103   0.741   8.663   3.432
  426DOPC   D2B 5104   0.717   8.801   3.936
  426DOPC   C3B 5105   0.669   8.832   4.421
  426DOPC   C4B 5106   0.505   9.066   4.845
  427DOPC   NC3 5107   7.488   3.369   2.645
  427DOPC   PO4 5108   7.273   3.707   2.620
  427DOPC   GL1 5109   7.395   3.858   3.003
  427DOPC   GL2 5110   7.573   3.589   3.060
  427DOPC   C1A 5111   7.237   4.061   3.373
  427DOPC   D2A 5112   7.094   4.060   3.857
  427DOPC   C3A 5113   7.255   3.979   4.294
  427DOPC   C4A 5114   7.440   3.870   4.740
  427DOPC   C1B 5115   7.652   3.397   3.466
  427DOPC   D2B 5116   7.741   3.156   3.897
  427DOPC   C3B 5117   7.677   3.187   4.366
  427DOPC   C4B 5118   7.441   3.328   4.782
  428DOPC   NC3 5119   9.750   6.366   2.433
  428DOPC   PO4 5120  10.005   6.395   2.747
  428DOPC   GL1 5121   9.978   6.506   3.173
  428DOPC   GL2 5122   9.929   6.799   3.086
  428DOPC   C1A 5123   9.762   6.399   3.570
  428DOPC   D2A 5124   9.469   6.390   3.999
  428DOPC   C3A 5125   9.559   6.468   4.462
  428DOPC   C4A 5126   9.734   6.727   4.857
  428DOPC   C1B 5127   9.718   6.962   3.453
  428DOPC   D2B 5128   9.480   7.099   3.885
  428DOPC   C3B 5129   9.371   6.925   4.308
  428DOPC   C4B 5130   9.244   6.763   4.760
  429DOPC   NC3 5131  19.767   8.595   2.667
  429DOPC   PO4 5132  19.454   8.803   2.807
  429DOPC   GL1 5133  19.376   8.976   3.144
  429DOPC   GL2 5134  19.634   9.137   3.136
  429DOPC   C1A 5135  19.397   8.730   3.496
  429DOPC   D2A 5136  19.426   8.401   3.857
  429DOPC   C3A 5137  19.403   8.504   4.300
  429DOPC   C4A 5138  19.419   8.718   4.735
  429DOPC   C1B 5139  19.733   9.101   3.562
  429DOPC   D2B 5140  19.644   8.847   3.989
  429DOPC   C3B 5141  19.796   8.868   4.437
  429DOPC   C4B 5142  19.842   9.021   4.914
  430DOPC   NC3 5143   0.620   0.370   2.594
  430DOPC   PO4 5144   0.835   0.046   2.692
  430DOPC   GL1 5145   0.730   0.111   3.101
  430DOPC   GL2 5146   0.776   0.422   3.069
  430DOPC   C1A 5147   0.718   0.121   3.537
  430DOPC   D2A 5148   0.734   0.241   4.011
  430DOPC   C3A 5149   0.521   0.397   4.403
  430DOPC   C4A 5150   0.146   0.486   4.717
  430DOPC   C1B 5151   0.646   0.655   3.453
  430DOPC   D2B 5152   0.472   0.684   3.936
  430DOPC   C3B 5153   0.193   0.808   4.310
  430DOPC   C4B 5154   0.045   0.993   4.760
  431DOPC   NC3 5155  14.213   8.004   2.707
  431DOPC   PO4 5156  14.577   8.154   2.805
  431DOPC   GL1 5157  14.415   8.211   3.198
  431DOPC   GL2 5158  14.337   8.497   3.109
  431DOPC   C1A 5159  14.165   8.252   3.564
  431DOPC   D2A 5160  13.988   8.348   4.022
  431DOPC   C3A 5161  14.283   8.414   4.387
  431DOPC   C4A 5162  14.488   8.562   4.810
  431DOPC   C1B 5163  14.383   8.715   3.499
  431DOPC   D2B 5164  14.467   8.745   4.001
  431DOPC   C3B 5165  14.403   8.971   4.424
  431DOPC   C4B 5166  14.286   9.050   4.906
  432DOPC   NC3 5167  11.635   8.504   2.470
  432DOPC   PO4 5168  11.532   8.431   2.849
  432DOPC   GL1 5169  11.849   8.465   3.179
  432DOPC   GL2 5170  12.011   8.272   3.026
  432DOPC   C1A 5171  12.029   8.450   3.586
  432DOPC   D2A 5172  12.053   8.170   4.000
  432DOPC   C3A 5173  11.964   8.083   4.450
  432DOPC   C4A 5174  11.882   7.910   4.898
  432DOPC   C1B 5175  12.167   8.004   3.360
  432DOPC   D2B 5176  12.246   7.730   3.775
  432DOPC   C3B 5177  12.221   7.685   4.248
  432DOPC   C4B 5178  12.226   7.570   4.728
  433DOPC   NC3 5179   1.377   8.232   2.266
  433DOPC   PO4 5180   1.177   8.044   2.576
  433DOPC   GL1 5181   1.246   8.161   2.998
  433DOPC   GL2 5182   0.941   8.141   3.054
  433DOPC   C1A 5183   1.402   8.073   3.412
  433DOPC   D2A 5184   1.513   8.162   3.902
  433DOPC   C3A 5185   1.398   8.012   4.341
  433DOPC   C4A 5186   1.472   7.706   4.723
  433DOPC   C1B 5187   0.898   8.193   3.496
  433DOPC   D2B 5188   1.059   8.418   3.911
  433DOPC   C3B 5189   0.968   8.339   4.362
  433DOPC   C4B 5190   1.043   8.185   4.825
  434DOPC   NC3 5191  18.909   3.607   2.945
  434DOPC   PO4 5192  19.227   3.352   2.922
  434DOPC   GL1 5193  19.190   3.226   3.329
  434DOPC   GL2 5194  19.121   3.528   3.379
  434DOPC   C1A 5195  19.311   3.075   3.727
  434DOPC   D2A 5196  19.276   3.258   4.195
  434DOPC   C3A 5197  19.055   3.050   4.555
  434DOPC   C4A 5198  18.900   2.806   4.964
  434DOPC   C1B 5199  19.101   3.568   3.812
  434DOPC   D2B 5200  18.862   3.727   4.204
  434DOPC   C3B 5201  18.792   3.791   4.660
  434DOPC   C4B 5202  18.623   3.940   5.105
  435DOPC   NC3 5203   5.565   0.015   2.605
  435DOPC   PO4 5204   5.846   9.781   2.780
  435DOPC   GL1 5205   5.695   9.656   3.150
  435DOPC   GL2 5206   5.892   9.419   3.178
  435DOPC   C1A 5207   5.640   9.853   3.552
  435DOPC   D2A 5208   5.394   0.004   3.973
  435DOPC   C3A 5209   5.449   0.086   4.439
  435DOPC   C4A 5210   5.550   0.218   4.911
  435DOPC   C1B 5211   5.731   9.305   3.581
  435DOPC   D2B 5212   5.514   9.225   4.031
  435DOPC   C3B 5213   5.641   9.516   4.385
  435DOPC   C4B 5214   5.832   9.842   4.711
  436DOPC   NC3 5215  15.532   7.401   2.794
  436DOPC   PO4 5216  15.391   7.035   2.801
  436DOPC   GL1 5217  15.218   7.200   3.122
  436DOPC   GL2 5218  15.008   7.400   3.080
  436DOPC   C1A 5219  15.181   7.115   3.544
  436DOPC   D2A 5220  15.109   7.323   3.989
  436DOPC   C3A 5221  15.183   7.202   4.427
  436DOPC   C4A 5222  15.224   7.069   4.891
  436DOPC   C1B 5223  14.836   7.493   3.492
  436DOPC   D2B 5224  14.732   7.661   3.969
  436DOPC   C3B 5225  14.724   7.460   4.408
  436DOPC   C4B 5226  14.735   7.312   4.890
  437DOPC   NC3 5227  14.556   7.845   2.371
  437DOPC   PO4 5228  14.604   7.649   2.728
  437DOPC   GL1 5229  14.427   7.763   3.076
  437DOPC   GL2 5230  14.124   7.732   3.066
  437DOPC   C1A 5231  14.489   7.866   3.497
  437DOPC   D2A 5232  14.299   7.939   3.956
  437DOPC   C3A 5233  14.460   7.907   4.392
  437DOPC   C4A 5234  14.599   7.803   4.852
  437DOPC   C1B 5235  13.980   7.775   3.502
  437DOPC   D2B 5236  13.780   7.861   3.972
  437DOPC   C3B 5237  13.949   8.002   4.405
  437DOPC   C4B 5238  14.180   8.132   4.836
  438DOPC   NC3 5239  15.008   8.037   2.514
  438DOPC   PO4 5240  15.141   7.718   2.727
  438DOPC   GL1 5241  14.901   7.867   3.029
  438DOPC   GL2 5242  15.022   8.144   2.979
  438DOPC   C1A 5243  14.984   7.949   3.428
  438DOPC   D2A 5244  15.106   8.015   3.887
  438DOPC   C3A 5245  15.097   7.811   4.303
  438DOPC   C4A 5246  15.110   7.626   4.752
  438DOPC   C1B 5247  15.189   8.391   3.333
  438DOPC   D2B 5248  15.267   8.526   3.818
  438DOPC   C3B 5249  15.172   8.348   4.249
  438DOPC   C4B 5250  14.865   8.170   4.602
  439DOPC   NC3 5251   9.802   3.578   2.795
  439DOPC   PO4 5252   9.468   3.366   2.855
  439DOPC   GL1 5253   9.347   3.584   3.225
  439DOPC   GL2 5254   9.660   3.667   3.242
  439DOPC   C1A 5255   9.309   3.677   3.648
  439DOPC   D2A 5256   9.511   3.575   4.094
  439DOPC   C3A 5257   9.386   3.700   4.528
  439DOPC   C4A 5258   9.275   3.674   5.010
  439DOPC   C1B 5259   9.821   3.536   3.631
  439DOPC   D2B 5260  10.013   3.387   4.061
  439DOPC   C3B 5261   9.829   3.407   4.480
  439DOPC   C4B 5262   9.490   3.257   4.807
  440DOPC   NC3 5263   1.251   3.187   2.831
  440DOPC   PO4 5264   1.141   2.798   2.809
  440DOPC   GL1 5265   1.462   2.631   3.057
  440DOPC   GL2 5266   1.475   2.934   3.161
  440DOPC   C1A 5267   1.330   2.457   3.447
  440DOPC   D2A 5268   1.063   2.311   3.841
  440DOPC   C3A 5269   1.085   2.401   4.302
  440DOPC   C4A 5270   1.150   2.492   4.779
  440DOPC   C1B 5271   1.296   2.943   3.551
  440DOPC   D2B 5272   1.303   2.760   4.004
  440DOPC   C3B 5273   1.304   2.887   4.453
  440DOPC   C4B 5274   1.240   2.982   4.933
  441DOPC   NC3 5275  19.102   2.572   2.712
  441DOPC   PO4 5276  18.701   2.547   2.729
  441DOPC   GL1 5277  18.722   2.478   3.117
  441DOPC   GL2 5278  19.022   2.454   3.172
  441DOPC   C1A 5279  18.707   2.875   3.326
  441DOPC   D2A 5280  18.799   3.174   3.726
  441DOPC   C3A 5281  18.706   3.182   4.198
  441DOPC   C4A 5282  18.517   3.057   4.652
  441DOPC   C1B 5283  19.067   2.641   3.588
  441DOPC   D2B 5284  19.018   2.813   4.070
  441DOPC   C3B 5285  19.008   2.559   4.481
  441DOPC   C4B 5286  19.278   2.436   4.881
  442DOPC   NC3 5287  15.108   4.121   2.551
  442DOPC   PO4 5288  15.430   4.358   2.566
  442DOPC   GL1 5289  15.212   4.412   2.959
  442DOPC   GL2 5290  15.334   4.119   2.986
  442DOPC   C1A 5291  15.107   4.566   3.378
  442DOPC   D2A 5292  14.994   4.735   3.850
  442DOPC   C3A 5293  15.060   4.596   4.289
  442DOPC   C4A 5294  15.058   4.345   4.728
  442DOPC   C1B 5295  15.304   3.945   3.395
  442DOPC   D2B 5296  15.066   3.982   3.837
  442DOPC   C3B 5297  15.160   4.013   4.296
  442DOPC   C4B 5298  15.319   3.893   4.752
  443DOPC   NC3 5299   8.707   2.687   2.738
  443DOPC   PO4 5300   9.079   2.547   2.649
  443DOPC   GL1 5301   9.107   2.290   3.005
  443DOPC   GL2 5302   8.808   2.346   3.032
  443DOPC   C1A 5303   9.203   2.455   3.399
  443DOPC   D2A 5304   9.105   2.776   3.780
  443DOPC   C3A 5305   9.099   2.620   4.224
  443DOPC   C4A 5306   9.073   2.401   4.662
  443DOPC   C1B 5307   8.789   2.735   3.285
  443DOPC   D2B 5308   8.668   3.059   3.667
  443DOPC   C3B 5309   8.729   2.987   4.129
  443DOPC   C4B 5310   8.842   2.866   4.599
  444DOPC   NC3 5311   1.970   0.623   2.561
  444DOPC   PO4 5312   2.075   0.230   2.608
  444DOPC   GL1 5313   2.286   0.420   2.993
  444DOPC   GL2 5314   2.005   0.545   3.012
  444DOPC   C1A 5315   2.402   0.493   3.446
  444DOPC   D2A 5316   2.230   0.577   3.939
  444DOPC   C3A 5317   2.162   0.684   4.407
  444DOPC   C4A 5318   2.049   0.845   4.864
  444DOPC   C1B 5319   1.913   0.469   3.424
  444DOPC   D2B 5320   1.954   0.184   3.837
  444DOPC   C3B 5321   1.947   0.236   4.302
  444DOPC   C4B 5322   1.962   0.300   4.798
  445DOPC   NC3 5323   8.253   4.760   2.517
  445DOPC   PO4 5324   8.230   5.153   2.564
  445DOPC   GL1 5325   8.242   4.958   2.950
  445DOPC   GL2 5326   7.954   4.853   2.887
  445DOPC   C1A 5327   8.208   5.160   3.346
  445DOPC   D2A 5328   8.105   5.312   3.818
  445DOPC   C3A 5329   8.129   5.185   4.275
  445DOPC   C4A 5330   8.146   5.010   4.742
  445DOPC   C1B 5331   7.791   4.868   3.296
  445DOPC   D2B 5332   7.810   4.742   3.779
  445DOPC   C3B 5333   7.847   4.736   4.252
  445DOPC   C4B 5334   7.648   4.786   4.709
  446DOPC   NC3 5335   2.804   3.749   2.808
  446DOPC   PO4 5336   2.489   3.499   2.752
  446DOPC   GL1 5337   2.640   3.235   3.054
  446DOPC   GL2 5338   2.865   3.415   3.101
  446DOPC   C1A 5339   2.495   3.293   3.461
  446DOPC   D2A 5340   2.192   3.363   3.851
  446DOPC   C3A 5341   2.253   3.494   4.298
  446DOPC   C4A 5342   2.471   3.607   4.738
  446DOPC   C1B 5343   2.791   3.739   3.387
  446DOPC   D2B 5344   2.808   3.988   3.823
  446DOPC   C3B 5345   2.989   3.831   4.227
  446DOPC   C4B 5346   2.991   3.744   4.718
  447DOPC   NC3 5347   9.953   9.802   2.684
  447DOPC   PO4 5348   9.970   9.396   2.733
  447DOPC   GL1 5349  10.109   9.346   3.155
  447DOPC   GL2 5350  10.106   9.669   3.135
  447DOPC   C1A 5351  10.062   9.233   3.587
  447DOPC   D2A 5352   9.955   9.458   4.041
  447DOPC   C3A 5353   9.793   9.427   4.495
  447DOPC   C4A 5354   9.850   9.361   4.985
  447DOPC   C1B 5355   9.950   9.936   3.458
  447DOPC   D2B 5356   9.810   0.043   3.924
  447DOPC   C3B 5357   9.664   9.913   4.354
  447DOPC   C4B 5358   9.605   9.807   4.837
  448DOPC   NC3 5359   8.693   5.380   2.557
  448DOPC   PO4 5360   8.710   5.041   2.765
  448DOPC   GL1 5361   9.016   5.133   3.014
  448DOPC   GL2 5362   9.057   5.425   2.908
  448DOPC   C1A 5363   8.963   5.290   3.422
  448DOPC   D2A 5364   8.953   5.565   3.838
  448DOPC   C3A 5365   8.864   5.578   4.299
  448DOPC   C4A 5366   8.941   5.772   4.739
  448DOPC   C1B 5367   9.188   5.716   3.253
  448DOPC   D2B 5368   9.287   5.953   3.706
  448DOPC   C3B 5369   9.041   6.032   4.118
  448DOPC   C4B 5370   8.638   6.045   4.433
  449DOPC   NC3 5371  14.359   6.622   2.692
  449DOPC   PO4 5372  14.017   6.809   2.796
  449DOPC   GL1 5373  14.231   7.016   3.109
  449DOPC   GL2 5374  14.427   6.785   3.124
  449DOPC   C1A 5375  14.218   6.995   3.552
  449DOPC   D2A 5376  14.376   6.674   3.911
  449DOPC   C3A 5377  14.319   6.673   4.383
  449DOPC   C4A 5378  14.141   6.789   4.837
  449DOPC   C1B 5379  14.236   6.513   3.424
  449DOPC   D2B 5380  13.942   6.325   3.794
  449DOPC   C3B 5381  13.871   6.342   4.260
  449DOPC   C4B 5382  13.953   6.338   4.743
  450DOPC   NC3 5383   7.325   1.981   2.786
  450DOPC   PO4 5384   7.061   1.883   3.065
  450DOPC   GL1 5385   7.381   2.006   3.310
  450DOPC   GL2 5386   7.350   2.295   3.197
  450DOPC   C1A 5387   7.298   1.940   3.749
  450DOPC   D2A 5388   7.023   1.813   4.144
  450DOPC   C3A 5389   7.143   1.800   4.603
  450DOPC   C4A 5390   7.213   1.846   5.092
  450DOPC   C1B 5391   7.477   2.408   3.610
  450DOPC   D2B 5392   7.536   2.280   4.101
  450DOPC   C3B 5393   7.400   2.290   4.562
  450DOPC   C4B 5394   7.219   2.352   5.029
  451DOPC   NC3 5395  13.263   9.855   2.617
  451DOPC   PO4 5396  12.909   0.006   2.752
  451DOPC   GL1 5397  13.011   9.959   3.157
  451DOPC   GL2 5398  13.327   9.941   3.114
  451DOPC   C1A 5399  12.934   9.814   3.574
  451DOPC   D2A 5400  13.113   9.709   4.032
  451DOPC   C3A 5401  13.219   9.787   4.489
  451DOPC   C4A 5402  13.198   9.837   4.980
  451DOPC   C1B 5403  13.576   9.918   3.515
  451DOPC   D2B 5404  13.710   9.873   4.013
  451DOPC   C3B 5405  13.743   9.939   4.500
  451DOPC   C4B 5406  13.737   9.984   5.007
  452DOPC   NC3 5407  10.511   7.953   2.595
  452DOPC   PO4 5408  10.809   7.952   2.860
  452DOPC   GL1 5409  10.737   7.962   3.241
  452DOPC   GL2 5410  10.680   8.284   3.253
  452DOPC   C1A 5411  10.706   7.687   3.601
  452DOPC   D2A 5412  10.637   7.592   4.089
  452DOPC   C3A 5413  10.812   7.744   4.512
  452DOPC   C4A 5414  10.970   8.006   4.916
  452DOPC   C1B 5415  10.674   8.413   3.686
  452DOPC   D2B 5416  10.676   8.469   4.177
  452DOPC   C3B 5417  10.537   8.182   4.518
  452DOPC   C4B 5418  10.363   7.795   4.780
  453DOPC   NC3 5419  18.522   8.848   2.389
  453DOPC   PO4 5420  18.368   8.541   2.589
  453DOPC   GL1 5421  18.519   8.758   2.920
  453DOPC   GL2 5422  18.221   8.881   2.968
  453DOPC   C1A 5423  18.615   8.621   3.317
  453DOPC   D2A 5424  18.616   8.613   3.824
  453DOPC   C3A 5425  18.489   8.453   4.247
  453DOPC   C4A 5426  18.370   8.348   4.714
  453DOPC   C1B 5427  18.036   8.999   3.402
  453DOPC   D2B 5428  17.989   9.168   3.888
  453DOPC   C3B 5429  18.167   9.054   4.328
  453DOPC   C4B 5430  18.255   8.835   4.775
  454DOPC   NC3 5431  19.831   2.191   2.813
  454DOPC   PO4 5432  19.679   1.875   2.619
  454DOPC   GL1 5433  19.623   1.809   3.053
  454DOPC   GL2 5434  19.745   1.527   2.976
  454DOPC   C1A 5435  19.712   2.005   3.479
  454DOPC   D2A 5436  19.683   2.106   3.998
  454DOPC   C3A 5437  19.787   2.143   4.482
  454DOPC   C4A 5438  19.833   2.136   4.996
  454DOPC   C1B 5439  19.811   1.505   3.401
  454DOPC   D2B 5440  19.996   1.707   3.816
  454DOPC   C3B 5441   0.091   1.789   4.264
  454DOPC   C4B 5442   0.243   1.983   4.695
  455DOPC   NC3 5443   6.937   6.597   2.549
  455DOPC   PO4 5444   7.190   6.858   2.726
  455DOPC   GL1 5445   7.344   6.692   3.056
  455DOPC   GL2 5446   7.425   6.412   2.954
  455DOPC   C1A 5447   7.315   6.801   3.487
  455DOPC   D2A 5448   7.430   6.720   3.973
  455DOPC   C3A 5449   7.161   6.740   4.356
  455DOPC   C4A 5450   6.878   6.916   4.729
  455DOPC   C1B 5451   7.485   6.304   3.393
  455DOPC   D2B 5452   7.656   6.259   3.881
  455DOPC   C3B 5453   7.492   6.345   4.331
  455DOPC   C4B 5454   7.265   6.452   4.780
  456DOPC   NC3 5455  16.534   4.339   2.617
  456DOPC   PO4 5456  16.584   4.035   2.878
  456DOPC   GL1 5457  16.705   4.290   3.214
  456DOPC   GL2 5458  16.535   4.513   3.074
  456DOPC   C1A 5459  16.658   4.340   3.673
  456DOPC   D2A 5460  16.774   4.347   4.173
  456DOPC   C3A 5461  16.622   4.127   4.577
  456DOPC   C4A 5462  16.510   4.200   5.068
  456DOPC   C1B 5463  16.214   4.420   3.382
  456DOPC   D2B 5464  16.114   4.260   3.854
  456DOPC   C3B 5465  16.290   4.370   4.278
  456DOPC   C4B 5466  16.465   4.586   4.684
  457DOPC   NC3 5467   5.223   1.955   2.723
  457DOPC   PO4 5468   5.448   1.630   2.779
  457DOPC   GL1 5469   5.298   1.527   3.160
  457DOPC   GL2 5470   5.020   1.586   3.062
  457DOPC   C1A 5471   5.381   1.685   3.572
  457DOPC   D2A 5472   5.509   1.823   4.046
  457DOPC   C3A 5473   5.286   1.848   4.478
  457DOPC   C4A 5474   5.134   1.853   4.964
  457DOPC   C1B 5475   4.885   1.898   3.371
  457DOPC   D2B 5476   4.729   2.195   3.762
  457DOPC   C3B 5477   4.787   2.140   4.240
  457DOPC   C4B 5478   4.697   1.955   4.706
  458DOPC   NC3 5479  11.134   1.139   2.805
  458DOPC   PO4 5480  10.776   1.207   2.971
  458DOPC   GL1 5481  10.826   1.006   3.325
  458DOPC   GL2 5482  11.106   0.898   3.229
  458DOPC   C1A 5483  10.799   1.158   3.748
  458DOPC   D2A 5484  10.761   1.310   4.233
  458DOPC   C3A 5485  11.054   1.460   4.573
  458DOPC   C4A 5486  11.550   1.558   4.622
  458DOPC   C1B 5487  11.252   1.210   3.480
  458DOPC   D2B 5488  11.181   1.436   3.930
  458DOPC   C3B 5489  11.378   1.202   4.283
  458DOPC   C4B 5490  11.448   1.055   4.755
  459DOPC   NC3 5491  12.442   0.197   2.835
  459DOPC   PO4 5492  12.361   9.831   2.686
  459DOPC   GL1 5493  12.572   9.711   3.010
  459DOPC   GL2 5494  12.570   9.413   2.945
  459DOPC   C1A 5495  12.444   9.804   3.429
  459DOPC   D2A 5496  12.472   9.953   3.906
  459DOPC   C3A 5497  12.680   9.791   4.295
  459DOPC   C4A 5498  12.812   9.565   4.727
  459DOPC   C1B 5499  12.643   9.323   3.384
  459DOPC   D2B 5500  12.656   9.467   3.872
  459DOPC   C3B 5501  12.764   9.263   4.293
  459DOPC   C4B 5502  12.944   9.023   4.696
  460DOPC   NC3 5503   0.351   9.455   2.655
  460DOPC   PO4 5504   0.515   9.711   2.928
  460DOPC   GL1 5505   0.486   9.764   3.365
  460DOPC   GL2 5506   0.786   9.685   3.412
  460DOPC   C1A 5507   0.291   9.944   3.750
  460DOPC   D2A 5508   0.125   0.121   4.201
  460DOPC   C3A 5509   0.159   9.970   4.651
  460DOPC   C4A 5510   0.243   9.793   5.106
  460DOPC   C1B 5511   0.746   9.723   3.875
  460DOPC   D2B 5512   0.611   9.875   4.343
  460DOPC   C3B 5513   0.619   9.708   4.785
  460DOPC   C4B 5514   0.654   9.503   5.247
  461DOPC   NC3 5515  17.217   5.927   2.849
  461DOPC   PO4 5516  17.584   6.090   2.785
  461DOPC   GL1 5517  17.690   5.932   3.161
  461DOPC   GL2 5518  17.550   5.656   3.081
  461DOPC   C1A 5519  17.584   6.085   3.577
  461DOPC   D2A 5520  17.455   6.339   4.009
  461DOPC   C3A 5521  17.536   6.243   4.464
  461DOPC   C4A 5522  17.719   5.936   4.796
  461DOPC   C1B 5523  17.531   5.560   3.516
  461DOPC   D2B 5524  17.718   5.747   3.955
  461DOPC   C3B 5525  17.496   5.729   4.369
  461DOPC   C4B 5526  17.231   5.760   4.795
  462DOPC   NC3 5527   4.975   0.683   2.722
  462DOPC   PO4 5528   5.212   0.382   2.591
  462DOPC   GL1 5529   5.305   0.349   3.008
  462DOPC   GL2 5530   5.351   0.053   3.048
  462DOPC   C1A 5531   5.151   0.483   3.422
  462DOPC   D2A 5532   5.021   0.432   3.927
  462DOPC   C3A 5533   5.072   0.520   4.411
  462DOPC   C4A 5534   5.101   0.599   4.912
  462DOPC   C1B 5535   5.162   9.998   3.469
  462DOPC   D2B 5536   4.874   9.890   3.868
  462DOPC   C3B 5537   4.944   0.011   4.308
  462DOPC   C4B 5538   5.041   0.113   4.781
  463DOPC   NC3 5539  11.340   0.634   2.702
  463DOPC   PO4 5540  11.427   0.292   2.890
  463DOPC   GL1 5541  11.148   0.450   3.154
  463DOPC   GL2 5542  10.941   0.250   3.088
  463DOPC   C1A 5543  11.278   0.560   3.576
  463DOPC   D2A 5544  11.560   0.429   3.998
  463DOPC   C3A 5545  11.539   0.431   4.487
  463DOPC   C4A 5546  11.451   0.567   4.970
  463DOPC   C1B 5547  10.978   0.134   3.515
  463DOPC   D2B 5548  11.083   9.934   3.972
  463DOPC   C3B 5549  11.134   0.096   4.424
  463DOPC   C4B 5550  10.980   0.337   4.836
  464DOPC   NC3 5551  13.440   7.441   2.697
  464DOPC   PO4 5552  13.730   7.708   2.759
  464DOPC   GL1 5553  13.544   7.645   3.143
  464DOPC   GL2 5554  13.441   7.364   3.146
  464DOPC   C1A 5555  13.505   7.621   3.573
  464DOPC   D2A 5556  13.432   7.477   4.048
  464DOPC   C3A 5557  13.600   7.621   4.461
  464DOPC   C4A 5558  13.734   7.849   4.873
  464DOPC   C1B 5559  13.408   7.118   3.535
  464DOPC   D2B 5560  13.283   6.959   4.006
  464DOPC   C3B 5561  13.427   7.122   4.433
  464DOPC   C4B 5562  13.809   7.227   4.748
  465DOPC   NC3 5563   5.663   3.644   2.553
  465DOPC   PO4 5564   6.006   3.813   2.674
  465DOPC   GL1 5565   5.926   3.721   3.095
  465DOPC   GL2 5566   5.847   3.432   3.004
  465DOPC   C1A 5567   5.919   3.722   3.549
  465DOPC   D2A 5568   5.845   3.695   4.063
  465DOPC   C3A 5569   5.974   3.713   4.532
  465DOPC   C4A 5570   6.111   3.703   5.025
  465DOPC   C1B 5571   5.760   3.202   3.390
  465DOPC   D2B 5572   5.625   3.172   3.882
  465DOPC   C3B 5573   5.779   3.252   4.331
  465DOPC   C4B 5574   5.668   3.420   4.791
  466DOPC   NC3 5575  16.765   2.412   2.766
  466DOPC   PO4 5576  16.397   2.420   2.927
  466DOPC   GL1 5577  16.507   2.248   3.318
  466DOPC   GL2 5578  16.808   2.279   3.221
  466DOPC   C1A 5579  16.516   2.265   3.782
  466DOPC   D2A 5580  16.588   2.222   4.295
  466DOPC   C3A 5581  16.456   2.350   4.748
  466DOPC   C4A 5582  16.245   2.471   5.188
  466DOPC   C1B 5583  16.929   2.539   3.563
  466DOPC   D2B 5584  17.074   2.802   3.981
  466DOPC   C3B 5585  16.894   2.919   4.408
  466DOPC   C4B 5586  16.745   2.808   4.874
  467DOPC   NC3 5587   5.687   0.547   2.748
  467DOPC   PO4 5588   5.425   0.801   2.918
  467DOPC   GL1 5589   5.597   0.785   3.275
  467DOPC   GL2 5590   5.869   0.660   3.173
  467DOPC   C1A 5591   5.543   0.663   3.697
  467DOPC   D2A 5592   5.538   0.544   4.182
  467DOPC   C3A 5593   5.556   0.662   4.646
  467DOPC   C4A 5594   5.563   0.676   5.160
  467DOPC   C1B 5595   5.977   0.420   3.536
  467DOPC   D2B 5596   5.937   0.225   4.003
  467DOPC   C3B 5597   5.917   0.331   4.466
  467DOPC   C4B 5598   5.995   0.541   4.905
  468DOPC   NC3 5599   7.214   6.066   2.599
  468DOPC   PO4 5600   6.997   5.756   2.735
  468DOPC   GL1 5601   7.213   5.641   3.078
  468DOPC   GL2 5602   7.451   5.830   2.987
  468DOPC   C1A 5603   7.154   5.714   3.519
  468DOPC   D2A 5604   7.347   5.814   3.976
  468DOPC   C3A 5605   7.310   5.884   4.443
  468DOPC   C4A 5606   7.332   5.963   4.935
  468DOPC   C1B 5607   7.648   5.812   3.401
  468DOPC   D2B 5608   7.898   5.797   3.852
  468DOPC   C3B 5609   7.775   5.656   4.300
  468DOPC   C4B 5610   7.628   5.547   4.775
  469DOPC   NC3 5611   4.687   6.421   2.546
  469DOPC   PO4 5612   4.377   6.262   2.737
  469DOPC   GL1 5613   4.650   6.230   3.061
  469DOPC   GL2 5614   4.558   6.533   3.123
  469DOPC   C1A 5615   4.654   6.107   3.489
  469DOPC   D2A 5616   4.543   6.173   3.976
  469DOPC   C3A 5617   4.594   6.339   4.419
  469DOPC   C4A 5618   4.609   6.532   4.877
  469DOPC   C1B 5619   4.516   6.591   3.583
  469DOPC   D2B 5620   4.321   6.630   4.050
  469DOPC   C3B 5621   4.353   6.807   4.485
  469DOPC   C4B 5622   4.252   6.949   4.961
  470DOPC   NC3 5623  14.972   7.246   2.649
  470DOPC   PO4 5624  14.618   7.108   2.801
  470DOPC   GL1 5625  14.625   7.169   3.259
  470DOPC   GL2 5626  14.843   6.958   3.214
  470DOPC   C1A 5627  14.693   7.069   3.703
  470DOPC   D2A 5628  14.845   6.870   4.131
  470DOPC   C3A 5629  14.747   6.910   4.585
  470DOPC   C4A 5630  14.607   6.845   5.065
  470DOPC   C1B 5631  14.748   6.617   3.499
  470DOPC   D2B 5632  14.779   6.355   3.934
  470DOPC   C3B 5633  14.798   6.422   4.408
  470DOPC   C4B 5634  15.006   6.569   4.851
  471DOPC   NC3 5635   9.338   1.715   2.553
  471DOPC   PO4 5636   9.255   1.816   2.943
  471DOPC   GL1 5637   9.453   2.098   3.206
  471DOPC   GL2 5638   9.734   2.043   3.096
  471DOPC   C1A 5639   9.413   2.016   3.642
  471DOPC   D2A 5640   9.374   1.953   4.146
  471DOPC   C3A 5641   9.375   1.957   4.621
  471DOPC   C4A 5642   9.518   1.883   5.092
  471DOPC   C1B 5643  10.034   2.025   3.432
  471DOPC   D2B 5644  10.243   1.930   3.887
  471DOPC   C3B 5645  10.002   1.873   4.300
  471DOPC   C4B 5646   9.787   1.630   4.680
  472DOPC   NC3 5647  10.111   8.861   2.872
  472DOPC   PO4 5648   9.877   8.537   2.921
  472DOPC   GL1 5649  10.155   8.510   3.260
  472DOPC   GL2 5650  10.005   8.800   3.328
  472DOPC   C1A 5651  10.101   8.434   3.695
  472DOPC   D2A 5652   9.838   8.337   4.109
  472DOPC   C3A 5653   9.847   8.462   4.569
  472DOPC   C4A 5654   9.954   8.816   4.910
  472DOPC   C1B 5655   9.684   8.845   3.655
  472DOPC   D2B 5656   9.253   8.954   3.932
  472DOPC   C3B 5657   9.187   9.112   4.382
  472DOPC   C4B 5658   9.385   9.121   4.836
  473DOPC   NC3 5659  15.889   4.606   2.548
  473DOPC   PO4 5660  15.647   4.784   2.812
  473DOPC   GL1 5661  15.861   4.710   3.197
  473DOPC   GL2 5662  16.064   4.926   3.121
  473DOPC   C1A 5663  15.836   4.657   3.657
  473DOPC   D2A 5664  15.899   4.632   4.157
  473DOPC   C3A 5665  15.954   4.735   4.615
  473DOPC   C4A 5666  15.881   4.677   5.107
  473DOPC   C1B 5667  16.041   5.105   3.532
  473DOPC   D2B 5668  15.950   5.103   4.024
  473DOPC   C3B 5669  16.015   5.259   4.462
  473DOPC   C4B 5670  16.148   5.507   4.874
  474DOPC   NC3 5671  12.025   5.171   2.364
  474DOPC   PO4 5672  11.844   5.352   2.678
  474DOPC   GL1 5673  11.953   5.641   3.025
  474DOPC   GL2 5674  12.074   5.370   3.150
  474DOPC   C1A 5675  11.912   5.738   3.466
  474DOPC   D2A 5676  11.959   5.616   3.942
  474DOPC   C3A 5677  12.034   5.397   4.348
  474DOPC   C4A 5678  12.036   5.248   4.823
  474DOPC   C1B 5679  12.151   5.273   3.608
  474DOPC   D2B 5680  12.215   5.011   4.052
  474DOPC   C3B 5681  12.006   4.871   4.459
  474DOPC   C4B 5682  11.633   4.770   4.781
  475DOPC   NC3 5683  10.828   8.346   2.571
  475DOPC   PO4 5684  10.936   8.481   2.923
  475DOPC   GL1 5685  11.130   8.200   3.160
  475DOPC   GL2 5686  11.388   8.319   3.261
  475DOPC   C1A 5687  11.041   8.066   3.565
  475DOPC   D2A 5688  10.973   7.966   4.043
  475DOPC   C3A 5689  11.031   8.201   4.435
  475DOPC   C4A 5690  10.831   8.599   4.664
  475DOPC   C1B 5691  11.517   8.207   3.688
  475DOPC   D2B 5692  11.502   8.122   4.197
  475DOPC   C3B 5693  11.471   8.129   4.676
  475DOPC   C4B 5694  11.472   8.023   5.179
  476DOPC   NC3 5695  14.465   4.709   2.608
  476DOPC   PO4 5696  14.772   4.470   2.695
  476DOPC   GL1 5697  14.791   4.650   3.065
  476DOPC   GL2 5698  14.571   4.867   3.057
  476DOPC   C1A 5699  14.629   4.631   3.475
  476DOPC   D2A 5700  14.422   4.761   3.904
  476DOPC   C3A 5701  14.611   4.830   4.326
  476DOPC   C4A 5702  14.917   4.858   4.718
  476DOPC   C1B 5703  14.397   5.082   3.450
  476DOPC   D2B 5704  14.166   5.234   3.890
  476DOPC   C3B 5705  14.079   5.386   4.351
  476DOPC   C4B 5706  14.218   5.518   4.818
  477DOPC   NC3 5707   1.978   8.821   2.434
  477DOPC   PO4 5708   2.060   9.157   2.637
  477DOPC   GL1 5709   1.710   9.299   2.866
  477DOPC   GL2 5710   1.611   8.992   2.893
  477DOPC   C1A 5711   1.825   9.342   3.298
  477DOPC   D2A 5712   1.871   9.333   3.808
  477DOPC   C3A 5713   1.703   9.077   4.175
  477DOPC   C4A 5714   1.664   8.858   4.628
  477DOPC   C1B 5715   1.682   8.865   3.338
  477DOPC   D2B 5716   1.981   8.817   3.769
  477DOPC   C3B 5717   2.000   8.655   4.229
  477DOPC   C4B 5718   2.014   8.501   4.714
  478DOPC   NC3 5719  15.163   4.761   2.633
  478DOPC   PO4 5720  14.864   5.003   2.722
  478DOPC   GL1 5721  15.007   5.047   3.087
  478DOPC   GL2 5722  15.259   4.880   3.079
  478DOPC   C1A 5723  14.902   5.068   3.496
  478DOPC   D2A 5724  14.707   5.211   3.936
  478DOPC   C3A 5725  15.013   5.163   4.302
  478DOPC   C4A 5726  15.257   5.250   4.730
  478DOPC   C1B 5727  15.425   4.922   3.502
  478DOPC   D2B 5728  15.478   4.877   4.004
  478DOPC   C3B 5729  15.462   4.847   4.481
  478DOPC   C4B 5730  15.375   4.762   4.969
  479DOPC   NC3 5731   1.031   8.511   2.756
  479DOPC   PO4 5732   1.140   8.909   2.779
  479DOPC   GL1 5733   1.234   8.997   3.210
  479DOPC   GL2 5734   1.343   9.278   3.141
  479DOPC   C1A 5735   1.128   8.969   3.665
  479DOPC   D2A 5736   1.162   8.902   4.176
  479DOPC   C3A 5737   1.144   8.738   4.633
  479DOPC   C4A 5738   1.133   8.590   5.113
  479DOPC   C1B 5739   1.392   9.397   3.578
  479DOPC   D2B 5740   1.327   9.444   4.084
  479DOPC   C3B 5741   1.340   9.231   4.520
  479DOPC   C4B 5742   1.350   9.043   5.000
  480DOPC   NC3 5743   6.392   4.140   2.542
  480DOPC   PO4 5744   6.143   4.310   2.802
  480DOPC   GL1 5745   6.298   4.409   3.176
  480DOPC   GL2 5746   6.585   4.405   3.072
  480DOPC   C1A 5747   6.345   4.559   3.587
  480DOPC   D2A 5748   6.439   4.710   4.056
  480DOPC   C3A 5749   6.398   4.444   4.430
  480DOPC   C4A 5750   6.387   3.992   4.657
  480DOPC   C1B 5751   6.841   4.448   3.452
  480DOPC   D2B 5752   7.008   4.558   3.925
  480DOPC   C3B 5753   6.909   4.520   4.384
  480DOPC   C4B 5754   6.708   4.358   4.819
  481DOPC   NC3 5755  11.192   2.609   2.468
  481DOPC   PO4 5756  11.134   2.408   2.800
  481DOPC   GL1 5757  11.418   2.682   2.963
  481DOPC   GL2 5758  11.249   2.917   2.823
  481DOPC   C1A 5759  11.320   2.611   3.406
  481DOPC   D2A 5760  11.136   2.483   3.863
  481DOPC   C3A 5761  11.150   2.483   4.332
  481DOPC   C4A 5762  10.915   2.490   4.767
  481DOPC   C1B 5763  11.056   3.030   3.194
  481DOPC   D2B 5764  11.062   2.980   3.678
  481DOPC   C3B 5765  11.010   2.960   4.139
  481DOPC   C4B 5766  10.949   2.993   4.635
  482DOPC   NC3 5767   0.884   9.528   2.642
  482DOPC   PO4 5768   1.167   9.680   2.881
  482DOPC   GL1 5769   1.249   9.736   3.278
  482DOPC   GL2 5770   1.542   9.681   3.213
  482DOPC   C1A 5771   1.187   9.866   3.692
  482DOPC   D2A 5772   1.139   9.974   4.178
  482DOPC   C3A 5773   1.062   9.663   4.518
  482DOPC   C4A 5774   0.954   9.319   4.856
  482DOPC   C1B 5775   1.757   9.769   3.576
  482DOPC   D2B 5776   1.629   9.872   4.043
  482DOPC   C3B 5777   1.565   9.720   4.472
  482DOPC   C4B 5778   1.453   9.528   4.910
  483DOPC   NC3 5779  16.727   1.369   2.695
  483DOPC   PO4 5780  16.725   0.967   2.664
  483DOPC   GL1 5781  16.980   0.905   2.993
  483DOPC   GL2 5782  16.867   1.206   3.111
  483DOPC   C1A 5783  16.974   0.868   3.410
  483DOPC   D2A 5784  16.810   0.928   3.869
  483DOPC   C3A 5785  16.793   0.932   4.341
  483DOPC   C4A 5786  16.909   1.041   4.810
  483DOPC   C1B 5787  16.833   1.368   3.556
  483DOPC   D2B 5788  16.793   1.388   4.075
  483DOPC   C3B 5789  16.606   1.372   4.517
  483DOPC   C4B 5790  16.352   1.350   4.939
  484DOPC   NC3 5791  11.838   3.989   2.567
  484DOPC   PO4 5792  12.190   3.953   2.758
  484DOPC   GL1 5793  12.102   3.967   3.232
  484DOPC   GL2 5794  11.843   3.842   3.107
  484DOPC   C1A 5795  12.084   4.007   3.714
  484DOPC   D2A 5796  12.062   4.154   4.210
  484DOPC   C3A 5797  12.219   4.143   4.666
  484DOPC   C4A 5798  12.196   3.956   5.136
  484DOPC   C1B 5799  11.572   3.803   3.453
  484DOPC   D2B 5800  11.298   3.789   3.880
  484DOPC   C3B 5801  11.545   4.013   4.211
  484DOPC   C4B 5802  11.731   4.277   4.597
  485DOPC   NC3 5803  19.072   5.916   2.649
  485DOPC   PO4 5804  18.863   5.583   2.698
  485DOPC   GL1 5805  18.746   5.823   3.031
  485DOPC   GL2 5806  19.056   5.854   3.103
  485DOPC   C1A 5807  18.482   5.855   3.400
  485DOPC   D2A 5808  18.249   5.988   3.834
  485DOPC   C3A 5809  18.285   5.725   4.228
  485DOPC   C4A 5810  18.435   5.503   4.654
  485DOPC   C1B 5811  18.970   5.985   3.495
  485DOPC   D2B 5812  18.742   6.166   3.895
  485DOPC   C3B 5813  19.021   6.226   4.267
  485DOPC   C4B 5814  19.248   6.284   4.706
  486DOPC   NC3 5815   5.444   7.194   2.939
  486DOPC   PO4 5816   5.331   7.528   2.748
  486DOPC   GL1 5817   5.452   7.678   3.116
  486DOPC   GL2 5818   5.755   7.615   3.085
  486DOPC   C1A 5819   5.464   7.394   3.449
  486DOPC   D2A 5820   5.673   7.078   3.761
  486DOPC   C3A 5821   5.645   7.146   4.215
  486DOPC   C4A 5822   5.827   6.972   4.629
  486DOPC   C1B 5823   5.961   7.461   3.496
  486DOPC   D2B 5824   6.050   7.386   4.008
  486DOPC   C3B 5825   5.964   7.485   4.486
  486DOPC   C4B 5826   5.995   7.666   4.960
  487DOPC   NC3 5827   4.971   7.845   2.560
  487DOPC   PO4 5828   4.607   7.944   2.711
  487DOPC   GL1 5829   4.706   7.838   3.115
  487DOPC   GL2 5830   4.993   7.758   3.027
  487DOPC   C1A 5831   4.683   7.911   3.559
  487DOPC   D2A 5832   4.820   8.045   4.028
  487DOPC   C3A 5833   4.851   8.003   4.491
  487DOPC   C4A 5834   5.045   7.926   4.939
  487DOPC   C1B 5835   5.172   7.899   3.419
  487DOPC   D2B 5836   5.335   8.044   3.884
  487DOPC   C3B 5837   5.289   8.203   4.338
  487DOPC   C4B 5838   5.246   8.398   4.797
  488DOPC   NC3 5839   7.565   9.579   2.450
  488DOPC   PO4 5840   7.788   9.855   2.643
  488DOPC   GL1 5841   7.533   9.760   2.957
  488DOPC   GL2 5842   7.342   9.567   2.873
  488DOPC   C1A 5843   7.528   9.774   3.410
  488DOPC   D2A 5844   7.642   9.832   3.900
  488DOPC   C3A 5845   7.590   9.778   4.367
  488DOPC   C4A 5846   7.521   9.729   4.865
  488DOPC   C1B 5847   7.151   9.465   3.276
  488DOPC   D2B 5848   7.215   9.551   3.776
  488DOPC   C3B 5849   7.152   9.513   4.253
  488DOPC   C4B 5850   7.049   9.604   4.730
  489DOPC   NC3 5851   2.830   6.515   2.569
  489DOPC   PO4 5852   2.900   6.156   2.712
  489DOPC   GL1 5853   2.764   6.367   3.081
  489DOPC   GL2 5854   2.949   6.610   3.047
  489DOPC   C1A 5855   2.698   6.399   3.527
  489DOPC   D2A 5856   2.570   6.478   4.008
  489DOPC   C3A 5857   2.801   6.475   4.419
  489DOPC   C4A 5858   3.075   6.511   4.829
  489DOPC   C1B 5859   3.036   6.845   3.457
  489DOPC   D2B 5860   3.028   7.066   3.927
  489DOPC   C3B 5861   2.907   6.964   4.381
  489DOPC   C4B 5862   2.696   6.848   4.830
  490DOPC   NC3 5863  10.572   3.283   2.827
  490DOPC   PO4 5864  10.325   3.594   2.724
  490DOPC   GL1 5865  10.139   3.718   3.093
  490DOPC   GL2 5866  10.295   3.455   3.198
  490DOPC   C1A 5867  10.141   3.903   3.471
  490DOPC   D2A 5868  10.364   3.683   3.845
  490DOPC   C3A 5869  10.356   3.683   4.314
  490DOPC   C4A 5870  10.287   3.668   4.804
  490DOPC   C1B 5871  10.242   3.223   3.589
  490DOPC   D2B 5872  10.253   2.947   4.021
  490DOPC   C3B 5873  10.380   3.157   4.432
  490DOPC   C4B 5874  10.564   3.237   4.894
  491DOPC   NC3 5875  19.565   6.513   2.446
  491DOPC   PO4 5876  19.454   6.830   2.664
  491DOPC   GL1 5877  19.403   6.694   3.104
  491DOPC   GL2 5878  19.639   6.502   3.089
  491DOPC   C1A 5879  19.382   6.766   3.560
  491DOPC   D2A 5880  19.405   6.750   4.084
  491DOPC   C3A 5881  19.391   6.904   4.544
  491DOPC   C4A 5882  19.404   7.120   5.007
  491DOPC   C1B 5883  19.792   6.492   3.544
  491DOPC   D2B 5884  19.912   6.565   4.043
  491DOPC   C3B 5885  19.863   6.542   4.531
  491DOPC   C4B 5886  19.974   6.368   5.007
  492DOPC   NC3 5887  14.424   2.315   2.626
  492DOPC   PO4 5888  14.648   2.027   2.783
  492DOPC   GL1 5889  14.731   2.233   3.182
  492DOPC   GL2 5890  14.468   2.389   3.084
  492DOPC   C1A 5891  14.696   2.188   3.641
  492DOPC   D2A 5892  14.557   2.139   4.120
  492DOPC   C3A 5893  14.551   2.007   4.572
  492DOPC   C4A 5894  14.595   1.654   4.913
  492DOPC   C1B 5895  14.238   2.244   3.436
  492DOPC   D2B 5896  14.139   1.983   3.861
  492DOPC   C3B 5897  14.094   2.061   4.332
  492DOPC   C4B 5898  14.044   2.199   4.816
  493DOPC   NC3 5899  12.729   6.795   2.681
  493DOPC   PO4 5900  12.364   6.690   2.820
  493DOPC   GL1 5901  12.455   6.786   3.214
  493DOPC   GL2 5902  12.697   6.957   3.138
  493DOPC   C1A 5903  12.483   6.603   3.624
  493DOPC   D2A 5904  12.521   6.411   4.091
  493DOPC   C3A 5905  12.400   6.249   4.524
  493DOPC   C4A 5906  12.106   6.078   4.895
  493DOPC   C1B 5907  12.895   6.921   3.533
  493DOPC   D2B 5908  12.763   6.877   4.012
  493DOPC   C3B 5909  12.949   6.882   4.433
  493DOPC   C4B 5910  13.136   7.056   4.857
  494DOPC   NC3 5911   0.789   7.670   2.410
  494DOPC   PO4 5912   1.114   7.466   2.519
  494DOPC   GL1 5913   0.745   7.465   2.831
  494DOPC   GL2 5914   0.898   7.728   2.900
  494DOPC   C1A 5915   0.619   7.364   3.254
  494DOPC   D2A 5916   0.656   7.284   3.759
  494DOPC   C3A 5917   0.827   7.478   4.164
  494DOPC   C4A 5918   0.980   7.739   4.565
  494DOPC   C1B 5919   1.022   7.722   3.346
  494DOPC   D2B 5920   1.160   7.775   3.848
  494DOPC   C3B 5921   1.348   7.509   4.218
  494DOPC   C4B 5922   1.572   7.220   4.570
  495DOPC   NC3 5923  11.908   1.363   2.671
  495DOPC   PO4 5924  11.553   1.424   2.862
  495DOPC   GL1 5925  11.673   1.396   3.277
  495DOPC   GL2 5926  11.952   1.286   3.219
  495DOPC   C1A 5927  11.651   1.419   3.724
  495DOPC   D2A 5928  11.570   1.688   4.130
  495DOPC   C3A 5929  11.875   1.353   4.281
  495DOPC   C4A 5930  11.951   1.233   4.751
  495DOPC   C1B 5931  12.156   1.174   3.638
  495DOPC   D2B 5932  12.353   0.958   4.078
  495DOPC   C3B 5933  12.330   0.928   4.557
  495DOPC   C4B 5934  12.248   0.945   5.070
  496DOPC   NC3 5935  17.354   4.480   2.663
  496DOPC   PO4 5936  17.093   4.206   2.782
  496DOPC   GL1 5937  17.142   4.338   3.131
  496DOPC   GL2 5938  17.333   4.565   3.146
  496DOPC   C1A 5939  17.189   4.197   3.509
  496DOPC   D2A 5940  17.250   4.072   3.990
  496DOPC   C3A 5941  17.143   4.127   4.446
  496DOPC   C4A 5942  16.957   4.492   4.708
  496DOPC   C1B 5943  17.523   4.573   3.561
  496DOPC   D2B 5944  17.735   4.310   3.946
  496DOPC   C3B 5945  17.612   4.330   4.401
  496DOPC   C4B 5946  17.410   4.319   4.859
  497DOPC   NC3 5947   9.261   4.662   2.852
  497DOPC   PO4 5948   9.559   4.401   2.836
  497DOPC   GL1 5949   9.693   4.565   3.167
  497DOPC   GL2 5950   9.653   4.851   3.057
  497DOPC   C1A 5951   9.516   4.547   3.572
  497DOPC   D2A 5952   9.294   4.526   4.018
  497DOPC   C3A 5953   9.561   4.827   4.271
  497DOPC   C4A 5954   9.820   5.017   4.669
  497DOPC   C1B 5955   9.667   5.034   3.453
  497DOPC   D2B 5956   9.722   5.193   3.933
  497DOPC   C3B 5957   9.821   5.430   4.324
  497DOPC   C4B 5958   9.910   5.587   4.790
  498DOPC   NC3 5959   2.649   6.994   2.604
  498DOPC   PO4 5960   2.502   6.737   2.882
  498DOPC   GL1 5961   2.613   6.774   3.277
  498DOPC   GL2 5962   2.737   7.049   3.168
  498DOPC   C1A 5963   2.582   6.890   3.700
  498DOPC   D2A 5964   2.522   7.155   4.122
  498DOPC   C3A 5965   2.645   7.477   4.434
  498DOPC   C4A 5966   2.828   7.837   4.716
  498DOPC   C1B 5967   2.782   7.324   3.529
  498DOPC   D2B 5968   2.876   7.575   3.963
  498DOPC   C3B 5969   3.145   7.509   4.349
  498DOPC   C4B 5970   3.021   7.270   4.770
  499DOPC   NC3 5971  15.087   2.069   2.538
  499DOPC   PO4 5972  15.414   2.166   2.752
  499DOPC   GL1 5973  15.158   2.182   3.057
  499DOPC   GL2 5974  15.040   1.907   2.996
  499DOPC   C1A 5975  15.180   2.131   3.493
  499DOPC   D2A 5976  15.070   2.163   3.988
  499DOPC   C3A 5977  15.121   2.054   4.439
  499DOPC   C4A 5978  14.952   2.047   4.899
  499DOPC   C1B 5979  14.826   1.790   3.373
  499DOPC   D2B 5980  14.596   1.719   3.822
  499DOPC   C3B 5981  14.811   1.692   4.245
  499DOPC   C4B 5982  15.074   1.587   4.669
  500DOPC   NC3 5983  14.626   1.484   2.198
  500DOPC   PO4 5984  14.785   1.584   2.550
  500DOPC   GL1 5985  14.655   1.567   3.012
  500DOPC   GL2 5986  14.951   1.472   3.017
  500DOPC   C1A 5987  14.559   1.364   3.436
  500DOPC   D2A 5988  14.598   1.220   3.938
  500DOPC   C3A 5989  14.755   1.214   4.404
  500DOPC   C4A 5990  14.836   1.193   4.907
  500DOPC   C1B 5991  15.149   1.400   3.422
  500DOPC   D2B 5992  15.376   1.243   3.850
  500DOPC   C3B 5993  15.282   1.046   4.271
  500DOPC   C4B 5994  15.364   1.078   4.755
  501DOPC   NC3 5995   0.253   2.993   2.829
  501DOPC   PO4 5996   0.163   2.600   2.781
  501DOPC   GL1 5997   0.159   2.342   3.126
  501DOPC   GL2 5998   0.453   2.285   3.092
  501DOPC   C1A 5999   0.098   2.552   3.517
  501DOPC   D2A 6000   0.265   2.745   3.961
  501DOPC   C3A 6001   0.167   2.767   4.429
  501DOPC   C4A 6002   0.112   2.942   4.889
  501DOPC   C1B 6003   0.612   2.529   3.432
  501DOPC   D2B 6004   0.810   2.769   3.823
  501DOPC   C3B 6005   0.713   2.776   4.280
  501DOPC   C4B 6006   0.608   2.777   4.765
  502DOPC   NC3 6007   9.636   0.636   2.560
  502DOPC   PO4 6008   9.286   0.680   2.755
  502DOPC   GL1 6009   9.266   0.650   3.205
  502DOPC   GL2 6010   9.506   0.448   3.159
  502DOPC   C1A 6011   9.396   0.812   3.616
  502DOPC   D2A 6012   9.530   1.005   4.071
  502DOPC   C3A 6013   9.463   0.715   4.457
  502DOPC   C4A 6014   9.423   0.270   4.701
  502DOPC   C1B 6015   9.714   0.403   3.556
  502DOPC   D2B 6016   9.707   0.523   4.046
  502DOPC   C3B 6017   9.868   0.374   4.465
  502DOPC   C4B 6018  10.084   0.285   4.902
  503DOPC   NC3 6019   5.095   7.157   2.511
  503DOPC   PO4 6020   4.791   6.906   2.568
  503DOPC   GL1 6021   4.697   7.101   2.927
  503DOPC   GL2 6022   4.937   7.295   2.928
  503DOPC   C1A 6023   4.712   7.003   3.359
  503DOPC   D2A 6024   4.725   7.134   3.855
  503DOPC   C3A 6025   5.025   7.201   4.224
  503DOPC   C4A 6026   5.321   7.170   4.634
  503DOPC   C1B 6027   4.987   7.427   3.347
  503DOPC   D2B 6028   5.006   7.590   3.825
  503DOPC   C3B 6029   5.203   7.689   4.242
  503DOPC   C4B 6030   5.451   7.670   4.675
  504DOPC   NC3 6031   2.146   7.103   2.617
  504DOPC   PO4 6032   2.357   7.245   2.927
  504DOPC   GL1 6033   2.318   7.091   3.315
  504DOPC   GL2 6034   2.160   6.850   3.229
  504DOPC   C1A 6035   2.258   7.290   3.705
  504DOPC   D2A 6036   2.276   7.619   4.084
  504DOPC   C3A 6037   2.159   7.661   4.539
  504DOPC   C4A 6038   1.901   7.456   4.914
  504DOPC   C1B 6039   1.893   6.928   3.577
  504DOPC   D2B 6040   1.714   7.081   4.030
  504DOPC   C3B 6041   2.048   7.184   4.359
  504DOPC   C4B 6042   2.347   7.221   4.763
  505DOPC   NC3 6043   0.318   5.734   2.499
  505DOPC   PO4 6044   0.413   6.045   2.736
  505DOPC   GL1 6045   0.396   6.039   3.188
  505DOPC   GL2 6046   0.240   5.768   3.146
  505DOPC   C1A 6047   0.647   5.993   3.579
  505DOPC   D2A 6048   0.887   5.896   4.021
  505DOPC   C3A 6049   0.759   5.887   4.472
  505DOPC   C4A 6050   0.653   5.813   4.949
  505DOPC   C1B 6051   0.246   5.676   3.588
  505DOPC   D2B 6052   0.363   5.772   4.075
  505DOPC   C3B 6053   0.285   5.705   4.539
  505DOPC   C4B 6054   0.137   5.864   4.984
  506DOPC   NC3 6055  15.343   3.031   2.801
  506DOPC   PO4 6056  15.520   3.377   2.699
  506DOPC   GL1 6057  15.382   3.633   3.011
  506DOPC   GL2 6058  15.135   3.745   2.867
  506DOPC   C1A 6059  15.258   3.320   3.321
  506DOPC   D2A 6060  15.280   3.073   3.764
  506DOPC   C3A 6061  15.265   3.182   4.219
  506DOPC   C4A 6062  15.112   3.408   4.632
  506DOPC   C1B 6063  14.895   3.669   3.225
  506DOPC   D2B 6064  14.918   3.498   3.694
  506DOPC   C3B 6065  14.929   3.584   4.156
  506DOPC   C4B 6066  14.803   3.815   4.589
  507DOPC   NC3 6067  17.332   0.815   2.524
  507DOPC   PO4 6068  17.435   0.763   2.906
  507DOPC   GL1 6069  17.234   0.416   3.092
  507DOPC   GL2 6070  17.525   0.336   3.160
  507DOPC   C1A 6071  17.089   0.396   3.492
  507DOPC   D2A 6072  17.245   0.680   3.850
  507DOPC   C3A 6073  17.145   0.577   4.286
  507DOPC   C4A 6074  16.982   0.532   4.741
  507DOPC   C1B 6075  17.587   0.374   3.611
  507DOPC   D2B 6076  17.481   0.256   4.091
  507DOPC   C3B 6077  17.522   0.277   4.569
  507DOPC   C4B 6078  17.629   0.118   5.036
  508DOPC   NC3 6079  14.190   7.368   2.778
  508DOPC   PO4 6080  13.862   7.275   2.985
  508DOPC   GL1 6081  13.933   7.328   3.376
  508DOPC   GL2 6082  14.238   7.407   3.318
  508DOPC   C1A 6083  13.870   7.343   3.820
  508DOPC   D2A 6084  14.090   7.531   4.242
  508DOPC   C3A 6085  14.143   7.621   4.711
  508DOPC   C4A 6086  14.100   7.681   5.213
  508DOPC   C1B 6087  14.351   7.446   3.734
  508DOPC   D2B 6088  14.406   7.145   4.124
  508DOPC   C3B 6089  14.316   7.175   4.576
  508DOPC   C4B 6090  14.257   7.231   5.068
  509DOPC   NC3 6091  10.434   9.558   2.814
  509DOPC   PO4 6092  10.471   9.185   2.917
  509DOPC   GL1 6093  10.558   9.238   3.328
  509DOPC   GL2 6094  10.492   9.530   3.299
  509DOPC   C1A 6095  10.552   9.248   3.783
  509DOPC   D2A 6096  10.640   9.639   4.076
  509DOPC   C3A 6097  10.526   9.608   4.530
  509DOPC   C4A 6098  10.418   9.509   5.010
  509DOPC   C1B 6099  10.298   9.670   3.702
  509DOPC   D2B 6100  10.220   9.893   4.174
  509DOPC   C3B 6101  10.090   9.842   4.634
  509DOPC   C4B 6102  10.015   9.829   5.125
  510DOPC   NC3 6103   9.529   3.997   2.545
  510DOPC   PO4 6104   9.433   3.904   2.915
  510DOPC   GL1 6105   9.578   4.140   3.232
  510DOPC   GL2 6106   9.299   4.303   3.217
  510DOPC   C1A 6107   9.668   4.030   3.654
  510DOPC   D2A 6108   9.923   3.897   4.061
  510DOPC   C3A 6109   9.888   3.933   4.528
  510DOPC   C4A 6110   9.540   4.085   4.854
  510DOPC   C1B 6111   9.176   4.178   3.629
  510DOPC   D2B 6112   9.207   3.982   4.082
  510DOPC   C3B 6113   9.501   4.217   4.355
  510DOPC   C4B 6114   9.545   4.572   4.699
  511DOPC   NC3 6115   7.708   2.652   2.933
  511DOPC   PO4 6116   7.784   2.971   2.703
  511DOPC   GL1 6117   7.618   3.129   3.052
  511DOPC   GL2 6118   7.341   3.004   2.934
  511DOPC   C1A 6119   7.704   2.879   3.423
  511DOPC   D2A 6120   7.916   2.660   3.831
  511DOPC   C3A 6121   7.848   2.681   4.300
  511DOPC   C4A 6122   7.626   2.777   4.733
  511DOPC   C1B 6123   7.191   2.729   3.260
  511DOPC   D2B 6124   7.007   2.603   3.720
  511DOPC   C3B 6125   6.976   2.386   4.149
  511DOPC   C4B 6126   6.916   2.473   4.641
  512DOPC   NC3 6127   8.085   9.461   2.609
  512DOPC   PO4 6128   7.769   9.342   2.827
  512DOPC   GL1 6129   7.815   9.486   3.204
  512DOPC   GL2 6130   7.929   9.776   3.105
  512DOPC   C1A 6131   7.738   9.372   3.636
  512DOPC   D2A 6132   7.777   9.348   4.136
  512DOPC   C3A 6133   7.969   9.471   4.555
  512DOPC   C4A 6134   8.335   9.447   4.906
  512DOPC   C1B 6135   7.929   0.077   3.423
  512DOPC   D2B 6136   7.919   0.260   3.877
  512DOPC   C3B 6137   8.032   0.066   4.285
  512DOPC   C4B 6138   8.201   9.912   4.725
  513DOPC   NC3 6139   4.733   9.618   2.447
  513DOPC   PO4 6140   4.622   9.705   2.815
  513DOPC   GL1 6141   4.666   9.426   3.129
  513DOPC   GL2 6142   4.939   9.345   2.979
  513DOPC   C1A 6143   4.705   9.459   3.592
  513DOPC   D2A 6144   4.647   9.474   4.105
  513DOPC   C3A 6145   4.725   9.320   4.559
  513DOPC   C4A 6146   4.645   9.129   5.025
  513DOPC   C1B 6147   5.079   9.185   3.371
  513DOPC   D2B 6148   5.001   9.139   3.873
  513DOPC   C3B 6149   5.082   9.024   4.320
  513DOPC   C4B 6150   4.975   8.843   4.768
  514DOPC   NC3 6151   7.246   0.369   2.898
  514DOPC   PO4 6152   6.895   0.181   2.823
  514DOPC   GL1 6153   6.881   9.945   3.198
  514DOPC   GL2 6154   7.176   9.936   3.122
  514DOPC   C1A 6155   6.993   9.993   3.627
  514DOPC   D2A 6156   7.189   0.022   4.094
  514DOPC   C3A 6157   7.232   0.085   4.564
  514DOPC   C4A 6158   7.284   0.237   5.028
  514DOPC   C1B 6159   7.373   0.244   3.381
  514DOPC   D2B 6160   7.434   0.415   3.829
  514DOPC   C3B 6161   7.580   0.325   4.261
  514DOPC   C4B 6162   7.745   0.156   4.694
  515DOPC   NC3 6163   0.319   1.336   2.359
  515DOPC   PO4 6164   0.375   1.000   2.572
  515DOPC   GL1 6165   0.381   1.269   2.909
  515DOPC   GL2 6166   0.078   1.217   2.968
  515DOPC   C1A 6167   0.642   1.179   3.271
  515DOPC   D2A 6168   0.727   1.107   3.765
  515DOPC   C3A 6169   0.669   1.065   4.229
  515DOPC   C4A 6170   0.548   0.950   4.692
  515DOPC   C1B 6171   0.159   1.144   3.406
  515DOPC   D2B 6172   0.241   1.175   3.908
  515DOPC   C3B 6173   0.224   1.310   4.363
  515DOPC   C4B 6174   0.337   1.417   4.824
  516DOPC   NC3 6175   4.219   7.699   2.494
  516DOPC   PO4 6176   3.967   7.854   2.765
  516DOPC   GL1 6177   4.255   7.916   3.034
  516DOPC   GL2 6178   4.285   8.225   2.952
  516DOPC   C1A 6179   4.113   7.812   3.445
  516DOPC   D2A 6180   3.886   7.767   3.890
  516DOPC   C3A 6181   4.136   7.768   4.288
  516DOPC   C4A 6182   4.432   7.775   4.682
  516DOPC   C1B 6183   4.344   8.268   3.389
  516DOPC   D2B 6184   4.326   8.099   3.876
  516DOPC   C3B 6185   4.384   8.217   4.341
  516DOPC   C4B 6186   4.239   8.271   4.815
  517DOPC   NC3 6187   7.976   5.807   2.467
  517DOPC   PO4 6188   7.721   6.078   2.614
  517DOPC   GL1 6189   7.784   6.134   3.041
  517DOPC   GL2 6190   7.912   5.840   3.007
  517DOPC   C1A 6191   7.981   6.205   3.429
  517DOPC   D2A 6192   8.200   6.271   3.868
  517DOPC   C3A 6193   8.022   6.110   4.263
  517DOPC   C4A 6194   7.751   6.056   4.667
  517DOPC   C1B 6195   8.151   5.705   3.373
  517DOPC   D2B 6196   8.444   5.702   3.784
  517DOPC   C3B 6197   8.322   5.667   4.233
  517DOPC   C4B 6198   8.149   5.723   4.694
  518DOPC   NC3 6199  11.333   1.926   2.694
  518DOPC   PO4 6200  11.100   1.613   2.620
  518DOPC   GL1 6201  11.105   1.547   3.072
  518DOPC   GL2 6202  11.077   1.859   3.070
  518DOPC   C1A 6203  11.060   1.681   3.503
  518DOPC   D2A 6204  11.173   1.965   3.920
  518DOPC   C3A 6205  11.203   1.936   4.403
  518DOPC   C4A 6206  11.231   1.821   4.895
  518DOPC   C1B 6207  11.312   2.096   3.367
  518DOPC   D2B 6208  11.594   2.293   3.729
  518DOPC   C3B 6209  11.609   2.235   4.194
  518DOPC   C4B 6210  11.558   2.222   4.688
  519DOPC   NC3 6211  12.757   7.311   2.759
  519DOPC   PO4 6212  13.074   7.147   2.939
  519DOPC   GL1 6213  13.025   7.356   3.325
  519DOPC   GL2 6214  12.738   7.421   3.219
  519DOPC   C1A 6215  13.008   7.359   3.773
  519DOPC   D2A 6216  12.985   7.366   4.273
  519DOPC   C3A 6217  13.116   7.522   4.704
  519DOPC   C4A 6218  13.109   7.503   5.206
  519DOPC   C1B 6219  12.534   7.291   3.584
  519DOPC   D2B 6220  12.470   7.291   4.065
  519DOPC   C3B 6221  12.548   7.224   4.498
  519DOPC   C4B 6222  12.641   6.908   4.847
  520DOPC   NC3 6223   8.348   1.499   2.954
  520DOPC   PO4 6224   8.120   1.165   2.892
  520DOPC   GL1 6225   7.761   1.246   3.178
  520DOPC   GL2 6226   7.946   1.481   3.227
  520DOPC   C1A 6227   7.694   1.120   3.628
  520DOPC   D2A 6228   7.679   1.216   4.142
  520DOPC   C3A 6229   7.620   1.158   4.618
  520DOPC   C4A 6230   7.689   1.047   5.109
  520DOPC   C1B 6231   8.117   1.396   3.621
  520DOPC   D2B 6232   8.191   1.059   3.991
  520DOPC   C3B 6233   8.119   1.187   4.437
  520DOPC   C4B 6234   8.027   1.407   4.870
  521DOPC   NC3 6235  13.410   3.264   2.438
  521DOPC   PO4 6236  13.806   3.279   2.409
  521DOPC   GL1 6237  13.852   3.335   2.869
  521DOPC   GL2 6238  13.560   3.345   2.905
  521DOPC   C1A 6239  13.990   3.263   3.297
  521DOPC   D2A 6240  13.943   3.292   3.804
  521DOPC   C3A 6241  13.973   3.263   4.283
  521DOPC   C4A 6242  13.806   3.252   4.756
  521DOPC   C1B 6243  13.497   3.443   3.331
  521DOPC   D2B 6244  13.493   3.528   3.824
  521DOPC   C3B 6245  13.460   3.353   4.261
  521DOPC   C4B 6246  13.287   3.254   4.715
  522DOPC   NC3 6247   7.319   7.888   2.863
  522DOPC   PO4 6248   7.460   8.246   2.994
  522DOPC   GL1 6249   7.612   8.110   3.401
  522DOPC   GL2 6250   7.492   7.843   3.308
  522DOPC   C1A 6251   7.527   8.193   3.848
  522DOPC   D2A 6252   7.584   8.231   4.342
  522DOPC   C3A 6253   7.526   8.153   4.806
  522DOPC   C4A 6254   7.455   8.257   5.289
  522DOPC   C1B 6255   7.159   7.970   3.571
  522DOPC   D2B 6256   7.047   8.152   4.041
  522DOPC   C3B 6257   7.129   8.064   4.503
  522DOPC   C4B 6258   7.093   7.935   4.996
  523DOPC   NC3 6259   4.406   1.321   2.734
  523DOPC   PO4 6260   4.353   0.943   2.617
  523DOPC   GL1 6261   4.227   0.959   3.033
  523DOPC   GL2 6262   4.024   1.188   2.986
  523DOPC   C1A 6263   4.396   0.956   3.452
  523DOPC   D2A 6264   4.522   0.799   3.919
  523DOPC   C3A 6265   4.269   0.790   4.317
  523DOPC   C4A 6266   3.975   0.754   4.714
  523DOPC   C1B 6267   4.228   1.429   3.289
  523DOPC   D2B 6268   4.477   1.431   3.726
  523DOPC   C3B 6269   4.403   1.272   4.173
  523DOPC   C4B 6270   4.400   1.155   4.671
  524DOPC   NC3 6271  16.174   6.720   2.848
  524DOPC   PO4 6272  15.784   6.654   2.783
  524DOPC   GL1 6273  15.655   6.873   3.162
  524DOPC   GL2 6274  15.917   7.026   3.116
  524DOPC   C1A 6275  15.588   6.815   3.618
  524DOPC   D2A 6276  15.365   6.833   4.090
  524DOPC   C3A 6277  15.471   6.698   4.548
  524DOPC   C4A 6278  15.820   6.493   4.862
  524DOPC   C1B 6279  16.104   7.003   3.529
  524DOPC   D2B 6280  16.122   7.046   4.041
  524DOPC   C3B 6281  16.181   6.878   4.496
  524DOPC   C4B 6282  16.229   6.771   4.986
  525DOPC   NC3 6283   2.667   1.254   2.622
  525DOPC   PO4 6284   2.672   1.498   2.938
  525DOPC   GL1 6285   2.894   1.361   3.298
  525DOPC   GL2 6286   2.884   1.068   3.190
  525DOPC   C1A 6287   2.817   1.359   3.757
  525DOPC   D2A 6288   2.653   1.411   4.238
  525DOPC   C3A 6289   2.746   1.375   4.708
  525DOPC   C4A 6290   2.914   1.297   5.180
  525DOPC   C1B 6291   2.638   0.940   3.535
  525DOPC   D2B 6292   2.495   0.993   4.014
  525DOPC   C3B 6293   2.614   0.928   4.473
  525DOPC   C4B 6294   2.597   0.928   4.968
  526DOPC   NC3 6295   2.184   1.383   2.828
  526DOPC   PO4 6296   2.000   1.027   2.885
  526DOPC   GL1 6297   2.273   0.872   3.186
  526DOPC   GL2 6298   2.448   1.125   3.130
  526DOPC   C1A 6299   2.114   0.932   3.601
  526DOPC   D2A 6300   1.959   0.998   4.082
  526DOPC   C3A 6301   2.177   1.204   4.461
  526DOPC   C4A 6302   2.280   1.334   4.934
  526DOPC   C1B 6303   2.366   1.381   3.499
  526DOPC   D2B 6304   2.182   1.427   3.963
  526DOPC   C3B 6305   1.801   1.474   4.244
  526DOPC   C4B 6306   1.678   1.224   4.664
  527DOPC   NC3 6307   8.056   2.556   2.542
  527DOPC   PO4 6308   8.227   2.497   2.901
  527DOPC   GL1 6309   8.326   2.781   3.191
  527DOPC   GL2 6310   8.077   2.960   3.153
  527DOPC   C1A 6311   8.404   2.632   3.619
  527DOPC   D2A 6312   8.572   2.480   4.079
  527DOPC   C3A 6313   8.269   2.314   4.413
  527DOPC   C4A 6314   7.905   2.331   4.763
  527DOPC   C1B 6315   8.149   3.109   3.576
  527DOPC   D2B 6316   8.202   3.048   4.081
  527DOPC   C3B 6317   8.323   2.828   4.477
  527DOPC   C4B 6318   8.493   2.527   4.827
  528DOPC   NC3 6319  19.476   1.406   2.567
  528DOPC   PO4 6320  19.132   1.323   2.760
  528DOPC   GL1 6321  19.335   1.441   3.097
  528DOPC   GL2 6322  19.310   1.219   3.276
  528DOPC   C1A 6323  19.324   1.667   3.455
  528DOPC   D2A 6324  19.312   1.745   3.947
  528DOPC   C3A 6325  19.550   1.700   4.351
  528DOPC   C4A 6326  19.861   1.643   4.734
  528DOPC   C1B 6327  19.481   1.244   3.695
  528DOPC   D2B 6328  19.772   1.331   4.092
  528DOPC   C3B 6329  19.643   1.219   4.536
  528DOPC   C4B 6330  19.563   1.078   5.015
  529DOPC   NC3 6331  10.325   2.138   2.558
  529DOPC   PO4 6332  10.160   2.459   2.734
  529DOPC   GL1 6333  10.291   2.618   3.093
  529DOPC   GL2 6334  10.518   2.794   2.966
  529DOPC   C1A 6335  10.328   2.450   3.522
  529DOPC   D2A 6336  10.247   2.423   4.029
  529DOPC   C3A 6337  10.264   2.313   4.494
  529DOPC   C4A 6338  10.328   2.321   4.988
  529DOPC   C1B 6339  10.614   2.866   3.384
  529DOPC   D2B 6340  10.670   2.703   3.843
  529DOPC   C3B 6341  10.619   2.683   4.302
  529DOPC   C4B 6342  10.454   2.751   4.746
  530DOPC   NC3 6343   8.824   7.105   2.513
  530DOPC   PO4 6344   8.565   7.247   2.795
  530DOPC   GL1 6345   8.567   7.340   3.219
  530DOPC   GL2 6346   8.407   7.597   3.167
  530DOPC   C1A 6347   8.771   7.310   3.641
  530DOPC   D2A 6348   8.983   7.247   4.110
  530DOPC   C3A 6349   9.035   7.215   4.587
  530DOPC   C4A 6350   9.036   7.225   5.091
  530DOPC   C1B 6351   8.402   7.671   3.596
  530DOPC   D2B 6352   8.695   7.691   4.008
  530DOPC   C3B 6353   8.646   7.500   4.421
  530DOPC   C4B 6354   8.583   7.187   4.810
  531DOPC   NC3 6355  11.890   8.945   2.499
  531DOPC   PO4 6356  11.970   8.707   2.805
  531DOPC   GL1 6357  11.715   8.880   3.126
  531DOPC   GL2 6358  11.965   8.970   3.284
  531DOPC   C1A 6359  11.599   8.689   3.498
  531DOPC   D2A 6360  11.689   8.572   3.992
  531DOPC   C3A 6361  11.762   8.555   4.462
  531DOPC   C4A 6362  11.754   8.448   4.952
  531DOPC   C1B 6363  11.901   8.988   3.750
  531DOPC   D2B 6364  11.875   9.026   4.257
  531DOPC   C3B 6365  12.027   8.974   4.711
  531DOPC   C4B 6366  12.167   9.180   5.154
  532DOPC   NC3 6367   4.592   4.380   2.559
  532DOPC   PO4 6368   4.733   4.024   2.673
  532DOPC   GL1 6369   4.948   4.181   2.992
  532DOPC   GL2 6370   5.207   4.018   2.922
  532DOPC   C1A 6371   4.724   4.205   3.379
  532DOPC   D2A 6372   4.566   4.057   3.832
  532DOPC   C3A 6373   4.666   4.104   4.291
  532DOPC   C4A 6374   4.783   4.176   4.772
  532DOPC   C1B 6375   5.540   3.990   3.232
  532DOPC   D2B 6376   5.596   4.057   3.744
  532DOPC   C3B 6377   5.496   4.076   4.210
  532DOPC   C4B 6378   5.293   4.150   4.656
  533DOPC   NC3 6379  12.940   1.273   2.689
  533DOPC   PO4 6380  13.282   1.339   2.874
  533DOPC   GL1 6381  13.228   1.029   3.151
  533DOPC   GL2 6382  12.917   1.040   3.119
  533DOPC   C1A 6383  13.234   1.107   3.578
  533DOPC   D2A 6384  13.173   1.056   4.070
  533DOPC   C3A 6385  12.819   1.128   4.386
  533DOPC   C4A 6386  12.608   1.240   4.832
  533DOPC   C1B 6387  12.688   1.109   3.507
  533DOPC   D2B 6388  12.644   1.346   3.952
  533DOPC   C3B 6389  12.400   1.443   4.357
  533DOPC   C4B 6390  12.281   1.622   4.809
  534DOPC   NC3 6391  19.899   4.139   2.391
  534DOPC   PO4 6392  19.656   4.033   2.691
  534DOPC   GL1 6393  19.654   4.204   3.054
  534DOPC   GL2 6394  19.470   4.430   2.980
  534DOPC   C1A 6395  19.776   4.237   3.469
  534DOPC   D2A 6396  19.733   4.376   3.952
  534DOPC   C3A 6397  19.779   4.095   4.338
  534DOPC   C4A 6398  19.943   3.942   4.770
  534DOPC   C1B 6399  19.323   4.481   3.397
  534DOPC   D2B 6400  19.231   4.472   3.889
  534DOPC   C3B 6401  19.385   4.427   4.337
  534DOPC   C4B 6402  19.516   4.592   4.786
  535DOPC   NC3 6403  10.231   6.622   2.349
  535DOPC   PO4 6404  10.225   6.858   2.683
  535DOPC   GL1 6405  10.371   6.837   3.100
  535DOPC   GL2 6406  10.663   6.769   3.015
  535DOPC   C1A 6407  10.188   6.747   3.520
  535DOPC   D2A 6408   9.929   6.688   3.974
  535DOPC   C3A 6409  10.048   6.652   4.448
  535DOPC   C4A 6410  10.230   6.620   4.924
  535DOPC   C1B 6411  10.860   6.651   3.405
  535DOPC   D2B 6412  10.970   6.484   3.873
  535DOPC   C3B 6413  10.836   6.427   4.325
  535DOPC   C4B 6414  10.671   6.325   4.792
  536DOPC   NC3 6415   8.080   0.648   2.775
  536DOPC   PO4 6416   8.442   0.766   2.879
  536DOPC   GL1 6417   8.374   0.591   3.242
  536DOPC   GL2 6418   8.127   0.433   3.180
  536DOPC   C1A 6419   8.309   0.595   3.673
  536DOPC   D2A 6420   8.225   0.559   4.153
  536DOPC   C3A 6421   8.239   0.424   4.588
  536DOPC   C4A 6422   8.559   0.615   4.882
  536DOPC   C1B 6423   7.832   0.591   3.493
  536DOPC   D2B 6424   7.773   0.747   3.977
  536DOPC   C3B 6425   7.848   0.737   4.448
  536DOPC   C4B 6426   8.114   0.879   4.857
  537DOPC   NC3 6427   1.858   9.597   2.494
  537DOPC   PO4 6428   1.675   9.792   2.785
  537DOPC   GL1 6429   1.960   0.034   3.031
  537DOPC   GL2 6430   2.127   9.761   2.963
  537DOPC   C1A 6431   2.178   0.021   3.417
  537DOPC   D2A 6432   2.230   9.736   3.839
  537DOPC   C3A 6433   2.091   9.745   4.294
  537DOPC   C4A 6434   1.966   9.772   4.781
  537DOPC   C1B 6435   2.296   9.534   3.333
  537DOPC   D2B 6436   2.413   9.256   3.744
  537DOPC   C3B 6437   2.427   9.360   4.206
  537DOPC   C4B 6438   2.451   9.567   4.661
  538DOPC   NC3 6439   5.271   6.369   2.615
  538DOPC   PO4 6440   5.370   6.746   2.543
  538DOPC   GL1 6441   5.127   6.860   2.899
  538DOPC   GL2 6442   4.968   6.600   2.889
  538DOPC   C1A 6443   5.236   6.926   3.337
  538DOPC   D2A 6444   5.205   6.884   3.848
  538DOPC   C3A 6445   5.315   6.776   4.310
  538DOPC   C4A 6446   5.452   6.669   4.783
  538DOPC   C1B 6447   4.966   6.489   3.315
  538DOPC   D2B 6448   4.977   6.412   3.817
  538DOPC   C3B 6449   4.834   6.703   4.172
  538DOPC   C4B 6450   4.871   6.914   4.631
  539DOPC   NC3 6451  16.794   5.260   2.389
  539DOPC   PO4 6452  17.013   5.335   2.727
  539DOPC   GL1 6453  16.844   5.234   3.136
  539DOPC   GL2 6454  16.685   5.007   3.022
  539DOPC   C1A 6455  16.852   5.133   3.588
  539DOPC   D2A 6456  16.793   4.897   4.035
  539DOPC   C3A 6457  16.825   4.935   4.504
  539DOPC   C4A 6458  16.830   4.916   5.003
  539DOPC   C1B 6459  16.467   4.868   3.383
  539DOPC   D2B 6460  16.320   4.730   3.846
  539DOPC   C3B 6461  16.340   4.886   4.294
  539DOPC   C4B 6462  16.385   5.070   4.765
  540DOPC   NC3 6463   6.276   0.944   2.777
  540DOPC   PO4 6464   6.607   0.765   2.906
  540DOPC   GL1 6465   6.327   0.706   3.250
  540DOPC   GL2 6466   6.290   1.011   3.234
  540DOPC   C1A 6467   6.403   0.669   3.686
  540DOPC   D2A 6468   6.536   0.722   4.164
  540DOPC   C3A 6469   6.861   0.911   4.477
  540DOPC   C4A 6470   7.165   1.067   4.854
  540DOPC   C1B 6471   6.476   1.172   3.604
  540DOPC   D2B 6472   6.794   1.168   3.997
  540DOPC   C3B 6473   6.446   1.207   4.311
  540DOPC   C4B 6474   6.110   1.343   4.645
  541DOPC   NC3 6475   9.139   3.311   2.499
  541DOPC   PO4 6476   9.123   3.693   2.552
  541DOPC   GL1 6477   8.964   3.767   2.922
  541DOPC   GL2 6478   8.978   3.458   2.971
  541DOPC   C1A 6479   8.922   3.854   3.341
  541DOPC   D2A 6480   8.759   3.901   3.817
  541DOPC   C3A 6481   8.770   3.772   4.269
  541DOPC   C4A 6482   8.799   3.704   4.745
  541DOPC   C1B 6483   9.008   3.333   3.412
  541DOPC   D2B 6484   8.984   3.407   3.928
  541DOPC   C3B 6485   9.019   3.335   4.405
  541DOPC   C4B 6486   8.985   3.262   4.901
  542DOPC   NC3 6487   4.866   3.608   2.441
  542DOPC   PO4 6488   4.564   3.365   2.522
  542DOPC   GL1 6489   4.639   3.351   2.941
  542DOPC   GL2 6490   4.797   3.609   2.908
  542DOPC   C1A 6491   4.620   3.214   3.361
  542DOPC   D2A 6492   4.615   3.128   3.854
  542DOPC   C3A 6493   4.683   3.248   4.300
  542DOPC   C4A 6494   4.723   3.139   4.779
  542DOPC   C1B 6495   4.686   3.711   3.296
  542DOPC   D2B 6496   4.433   3.581   3.712
  542DOPC   C3B 6497   4.376   3.654   4.186
  542DOPC   C4B 6498   4.380   3.844   4.652
  543DOPC   NC3 6499   9.689   2.486   2.513
  543DOPC   PO4 6500   9.491   2.224   2.736
  543DOPC   GL1 6501   9.646   2.486   3.031
  543DOPC   GL2 6502   9.404   2.673   2.972
  543DOPC   C1A 6503   9.700   2.434   3.475
  543DOPC   D2A 6504   9.520   2.438   3.956
  543DOPC   C3A 6505   9.669   2.333   4.404
  543DOPC   C4A 6506   9.878   2.121   4.805
  543DOPC   C1B 6507   9.345   2.933   3.331
  543DOPC   D2B 6508   9.423   3.193   3.750
  543DOPC   C3B 6509   9.403   3.056   4.201
  543DOPC   C4B 6510   9.424   2.786   4.620
  544DOPC   NC3 6511  14.000   0.453   2.505
  544DOPC   PO4 6512  14.102   0.820   2.637
  544DOPC   GL1 6513  13.953   0.592   2.988
  544DOPC   GL2 6514  14.245   0.543   3.045
  544DOPC   C1A 6515  13.924   0.620   3.423
  544DOPC   D2A 6516  13.896   0.591   3.928
  544DOPC   C3A 6517  13.790   0.447   4.360
  544DOPC   C4A 6518  13.987   0.382   4.806
  544DOPC   C1B 6519  14.411   0.432   3.446
  544DOPC   D2B 6520  14.451   0.409   3.950
  544DOPC   C3B 6521  14.321   0.433   4.406
  544DOPC   C4B 6522  14.513   0.360   4.867
  545DOPC   NC3 6523   2.862   5.332   2.573
  545DOPC   PO4 6524   3.201   5.347   2.782
  545DOPC   GL1 6525   3.120   5.527   3.124
  545DOPC   GL2 6526   3.042   5.796   2.980
  545DOPC   C1A 6527   2.980   5.513   3.547
  545DOPC   D2A 6528   2.845   5.617   4.020
  545DOPC   C3A 6529   2.948   5.669   4.482
  545DOPC   C4A 6530   2.995   5.672   4.987
  545DOPC   C1B 6531   2.790   5.942   3.328
  545DOPC   D2B 6532   2.536   5.983   3.785
  545DOPC   C3B 6533   2.621   6.025   4.264
  545DOPC   C4B 6534   2.777   6.082   4.748
  546DOPC   NC3 6535   6.483   0.372   2.614
  546DOPC   PO4 6536   6.180   0.450   2.873
  546DOPC   GL1 6537   6.535   0.336   3.090
  546DOPC   GL2 6538   6.475   0.047   2.994
  546DOPC   C1A 6539   6.782   0.419   3.455
  546DOPC   D2A 6540   6.952   0.490   3.925
  546DOPC   C3A 6541   6.879   0.408   4.380
  546DOPC   C4A 6542   6.496   0.569   4.646
  546DOPC   C1B 6543   6.471  10.001   3.427
  546DOPC   D2B 6544   6.533   0.195   3.879
  546DOPC   C3B 6545   6.383   0.210   4.314
  546DOPC   C4B 6546   6.278   0.121   4.797
  547DOPC   NC3 6547  12.582   5.879   2.660
  547DOPC   PO4 6548  12.210   5.984   2.757
  547DOPC   GL1 6549  12.450   6.157   3.089
  547DOPC   GL2 6550  12.633   6.314   2.905
  547DOPC   C1A 6551  12.600   6.129   3.538
  547DOPC   D2A 6552  12.704   5.930   3.993
  547DOPC   C3A 6553  12.593   5.778   4.430
  547DOPC   C4A 6554  12.393   5.631   4.858
  547DOPC   C1B 6555  12.846   6.486   3.265
  547DOPC   D2B 6556  12.941   6.459   3.777
  547DOPC   C3B 6557  12.999   6.289   4.214
  547DOPC   C4B 6558  12.965   6.074   4.658
  548DOPC   NC3 6559  17.322   2.426   2.651
  548DOPC   PO4 6560  17.131   2.083   2.748
  548DOPC   GL1 6561  17.304   1.996   3.139
  548DOPC   GL2 6562  17.389   2.295   3.117
  548DOPC   C1A 6563  17.130   2.034   3.548
  548DOPC   D2A 6564  17.005   2.262   3.981
  548DOPC   C3A 6565  17.157   2.456   4.379
  548DOPC   C4A 6566  17.261   2.783   4.734
  548DOPC   C1B 6567  17.429   2.430   3.539
  548DOPC   D2B 6568  17.545   2.541   4.019
  548DOPC   C3B 6569  17.590   2.853   4.357
  548DOPC   C4B 6570  17.555   3.242   4.663
  549DOPC   NC3 6571   3.611   7.022   2.518
  549DOPC   PO4 6572   3.856   7.342   2.579
  549DOPC   GL1 6573   3.742   7.519   3.008
  549DOPC   GL2 6574   3.658   7.211   3.035
  549DOPC   C1A 6575   3.624   7.596   3.452
  549DOPC   D2A 6576   3.463   7.451   3.919
  549DOPC   C3A 6577   3.746   7.437   4.304
  549DOPC   C4A 6578   4.035   7.409   4.720
  549DOPC   C1B 6579   3.569   7.071   3.471
  549DOPC   D2B 6580   3.512   6.889   3.947
  549DOPC   C3B 6581   3.417   7.060   4.383
  549DOPC   C4B 6582   3.505   7.383   4.762
  550DOPC   NC3 6583  14.522   9.918   2.658
  550DOPC   PO4 6584  14.236   0.153   2.821
  550DOPC   GL1 6585  14.019   0.202   3.230
  550DOPC   GL2 6586  13.895   9.941   3.153
  550DOPC   C1A 6587  14.050   0.168   3.694
  550DOPC   D2A 6588  14.170   0.010   4.173
  550DOPC   C3A 6589  14.260   9.974   4.643
  550DOPC   C4A 6590  14.245   0.023   5.145
  550DOPC   C1B 6591  14.067   9.707   3.496
  550DOPC   D2B 6592  14.176   9.530   3.958
  550DOPC   C3B 6593  14.126   9.530   4.431
  550DOPC   C4B 6594  14.129   9.555   4.932
  551DOPC   NC3 6595  17.565   7.386   2.473
  551DOPC   PO4 6596  17.659   7.617   2.785
  551DOPC   GL1 6597  17.400   7.519   3.088
  551DOPC   GL2 6598  17.332   7.234   3.031
  551DOPC   C1A 6599  17.422   7.524   3.533
  551DOPC   D2A 6600  17.314   7.598   4.023
  551DOPC   C3A 6601  17.487   7.583   4.454
  551DOPC   C4A 6602  17.862   7.503   4.784
  551DOPC   C1B 6603  17.076   7.156   3.401
  551DOPC   D2B 6604  16.970   7.251   3.892
  551DOPC   C3B 6605  17.181   7.159   4.329
  551DOPC   C4B 6606  17.431   7.198   4.778
  552DOPC   NC3 6607   5.292   4.807   2.514
  552DOPC   PO4 6608   5.155   4.452   2.649
  552DOPC   GL1 6609   5.359   4.451   3.023
  552DOPC   GL2 6610   5.449   4.766   2.997
  552DOPC   C1A 6611   5.225   4.320   3.437
  552DOPC   D2A 6612   5.083   4.138   3.894
  552DOPC   C3A 6613   5.105   4.427   4.280
  552DOPC   C4A 6614   5.200   4.668   4.715
  552DOPC   C1B 6615   5.504   5.015   3.395
  552DOPC   D2B 6616   5.556   5.037   3.919
  552DOPC   C3B 6617   5.277   5.034   4.330
  552DOPC   C4B 6618   4.991   5.146   4.749
  553DOPC   NC3 6619  17.289   9.924   2.398
  553DOPC   PO4 6620  17.244   9.596   2.612
  553DOPC   GL1 6621  17.096   9.732   2.983
  553DOPC   GL2 6622  17.274   9.976   2.981
  553DOPC   C1A 6623  17.070   9.550   3.381
  553DOPC   D2A 6624  17.129   9.332   3.822
  553DOPC   C3A 6625  17.025   9.444   4.255
  553DOPC   C4A 6626  16.971   9.561   4.732
  553DOPC   C1B 6627  17.351   9.967   3.419
  553DOPC   D2B 6628  17.283   9.823   3.909
  553DOPC   C3B 6629  17.336   9.823   4.383
  553DOPC   C4B 6630  17.478   9.608   4.809
  554DOPC   NC3 6631  12.729   8.722   2.727
  554DOPC   PO4 6632  12.421   8.968   2.838
  554DOPC   GL1 6633  12.288   8.681   3.157
  554DOPC   GL2 6634  12.576   8.600   3.147
  554DOPC   C1A 6635  12.348   8.870   3.554
  554DOPC   D2A 6636  12.348   9.078   4.014
  554DOPC   C3A 6637  12.425   8.842   4.406
  554DOPC   C4A 6638  12.210   8.503   4.689
  554DOPC   C1B 6639  12.832   8.814   3.407
  554DOPC   D2B 6640  12.831   8.965   3.874
  554DOPC   C3B 6641  12.923   8.724   4.269
  554DOPC   C4B 6642  13.099   8.504   4.678
  555DOPC   NC3 6643  16.055   1.635   2.241
  555DOPC   PO4 6644  16.174   1.842   2.560
  555DOPC   GL1 6645  16.421   1.701   2.869
  555DOPC   GL2 6646  16.578   1.966   2.925
  555DOPC   C1A 6647  16.328   1.536   3.268
  555DOPC   D2A 6648  16.344   1.519   3.780
  555DOPC   C3A 6649  16.417   1.733   4.207
  555DOPC   C4A 6650  16.544   1.848   4.681
  555DOPC   C1B 6651  16.719   1.841   3.334
  555DOPC   D2B 6652  16.757   1.828   3.838
  555DOPC   C3B 6653  16.954   1.845   4.279
  555DOPC   C4B 6654  17.098   2.035   4.723
  556DOPC   NC3 6655  15.586   9.586   2.597
  556DOPC   PO4 6656  15.896   9.831   2.668
  556DOPC   GL1 6657  15.828   9.862   3.082
  556DOPC   GL2 6658  16.118   9.763   3.132
  556DOPC   C1A 6659  15.553   9.893   3.440
  556DOPC   D2A 6660  15.360   0.021   3.880
  556DOPC   C3A 6661  15.511   9.874   4.296
  556DOPC   C4A 6662  15.522   9.680   4.750
  556DOPC   C1B 6663  16.100   9.742   3.571
  556DOPC   D2B 6664  16.119   9.616   4.050
  556DOPC   C3B 6665  16.014   9.570   4.503
  556DOPC   C4B 6666  15.955   9.585   5.008
  557DOPC   NC3 6667  11.789   5.811   2.526
  557DOPC   PO4 6668  11.650   6.183   2.516
  557DOPC   GL1 6669  11.729   6.195   2.959
  557DOPC   GL2 6670  11.990   6.326   2.971
  557DOPC   C1A 6671  11.647   6.165   3.405
  557DOPC   D2A 6672  11.694   6.054   3.911
  557DOPC   C3A 6673  11.619   6.102   4.392
  557DOPC   C4A 6674  11.565   6.096   4.892
  557DOPC   C1B 6675  12.135   6.262   3.395
  557DOPC   D2B 6676  12.210   6.063   3.866
  557DOPC   C3B 6677  12.085   5.914   4.316
  557DOPC   C4B 6678  11.825   5.700   4.696
  558DOPC   NC3 6679   0.987   0.734   2.382
  558DOPC   PO4 6680   1.081   0.526   2.721
  558DOPC   GL1 6681   1.343   0.602   3.092
  558DOPC   GL2 6682   1.082   0.783   3.149
  558DOPC   C1A 6683   1.481   0.722   3.511
  558DOPC   D2A 6684   1.463   0.910   3.981
  558DOPC   C3A 6685   1.607   0.746   4.409
  558DOPC   C4A 6686   1.551   0.598   4.886
  558DOPC   C1B 6687   1.130   1.091   3.479
  558DOPC   D2B 6688   1.108   1.457   3.844
  558DOPC   C3B 6689   1.037   1.459   4.314
  558DOPC   C4B 6690   0.869   1.368   4.776
  559DOPC   NC3 6691   3.768   4.240   2.853
  559DOPC   PO4 6692   3.482   4.506   2.753
  559DOPC   GL1 6693   3.319   4.504   3.158
  559DOPC   GL2 6694   3.411   4.213   3.150
  559DOPC   C1A 6695   3.423   4.523   3.599
  559DOPC   D2A 6696   3.739   4.334   3.944
  559DOPC   C3A 6697   3.681   4.361   4.401
  559DOPC   C4A 6698   3.591   4.390   4.874
  559DOPC   C1B 6699   3.594   4.044   3.533
  559DOPC   D2B 6700   3.623   3.792   3.981
  559DOPC   C3B 6701   3.493   3.869   4.435
  559DOPC   C4B 6702   3.434   3.908   4.932
  560DOPC   NC3 6703   1.646   8.182   2.696
  560DOPC   PO4 6704   1.535   8.565   2.609
  560DOPC   GL1 6705   1.403   8.609   3.024
  560DOPC   GL2 6706   1.636   8.436   3.096
  560DOPC   C1A 6707   1.272   8.556   3.427
  560DOPC   D2A 6708   1.503   8.681   3.855
  560DOPC   C3A 6709   1.493   8.515   4.289
  560DOPC   C4A 6710   1.514   8.359   4.755
  560DOPC   C1B 6711   1.791   8.394   3.517
  560DOPC   D2B 6712   2.047   8.247   3.925
  560DOPC   C3B 6713   1.926   8.128   4.366
  560DOPC   C4B 6714   1.877   7.989   4.841
  561DOPC   NC3 6715   3.595   0.457   2.504
  561DOPC   PO4 6716   3.240   0.338   2.649
  561DOPC   GL1 6717   3.438   0.237   3.019
  561DOPC   GL2 6718   3.580   0.516   3.001
  561DOPC   C1A 6719   3.361   0.288   3.439
  561DOPC   D2A 6720   3.478   0.466   3.899
  561DOPC   C3A 6721   3.380   0.269   4.323
  561DOPC   C4A 6722   3.259   9.992   4.732
  561DOPC   C1B 6723   3.609   0.733   3.408
  561DOPC   D2B 6724   3.607   0.978   3.853
  561DOPC   C3B 6725   3.529   0.824   4.289
  561DOPC   C4B 6726   3.453   0.624   4.736
  562DOPC   NC3 6727   0.491   4.911   2.514
  562DOPC   PO4 6728   0.469   4.590   2.753
  562DOPC   GL1 6729   0.535   4.827   3.105
  562DOPC   GL2 6730   0.527   5.088   2.965
  562DOPC   C1A 6731   0.378   4.925   3.515
  562DOPC   D2A 6732   0.504   5.017   3.987
  562DOPC   C3A 6733   0.503   4.845   4.415
  562DOPC   C4A 6734   0.515   4.816   4.900
  562DOPC   C1B 6735   0.597   5.351   3.324
  562DOPC   D2B 6736   0.673   5.473   3.807
  562DOPC   C3B 6737   0.672   5.396   4.286
  562DOPC   C4B 6738   0.582   5.331   4.778
  563DOPC   NC3 6739  13.267   7.966   2.796
  563DOPC   PO4 6740  13.083   7.659   2.968
  563DOPC   GL1 6741  13.131   7.811   3.364
  563DOPC   GL2 6742  13.320   8.024   3.260
  563DOPC   C1A 6743  13.130   7.847   3.822
  563DOPC   D2A 6744  13.162   7.864   4.329
  563DOPC   C3A 6745  13.274   8.005   4.779
  563DOPC   C4A 6746  13.390   7.935   5.275
  563DOPC   C1B 6747  13.473   8.170   3.646
  563DOPC   D2B 6748  13.216   8.294   4.067
  563DOPC   C3B 6749  13.509   8.280   4.419
  563DOPC   C4B 6750  13.677   8.370   4.872
  564DOPC   NC3 6751   6.528   8.970   2.706
  564DOPC   PO4 6752   6.163   8.893   2.837
  564DOPC   GL1 6753   6.284   8.848   3.231
  564DOPC   GL2 6754   6.570   8.808   3.160
  564DOPC   C1A 6755   6.312   9.170   3.532
  564DOPC   D2A 6756   6.369   9.430   3.959
  564DOPC   C3A 6757   6.617   9.388   4.366
  564DOPC   C4A 6758   6.750   9.196   4.800
  564DOPC   C1B 6759   6.807   8.997   3.488
  564DOPC   D2B 6760   6.857   9.205   3.940
  564DOPC   C3B 6761   6.959   8.984   4.352
  564DOPC   C4B 6762   6.774   8.643   4.678
  565DOPC   NC3 6763   1.301   6.979   2.489
  565DOPC   PO4 6764   1.463   6.665   2.695
  565DOPC   GL1 6765   1.617   6.611   3.110
  565DOPC   GL2 6766   1.570   6.303   3.062
  565DOPC   C1A 6767   1.429   6.750   3.503
  565DOPC   D2A 6768   1.227   6.862   3.954
  565DOPC   C3A 6769   1.286   6.812   4.420
  565DOPC   C4A 6770   1.432   6.838   4.898
  565DOPC   C1B 6771   1.263   6.282   3.410
  565DOPC   D2B 6772   1.048   6.365   3.864
  565DOPC   C3B 6773   0.977   6.342   4.336
  565DOPC   C4B 6774   0.938   6.246   4.828
  566DOPC   NC3 6775  11.958   2.669   2.441
  566DOPC   PO4 6776  11.619   2.851   2.539
  566DOPC   GL1 6777  11.660   3.074   2.941
  566DOPC   GL2 6778  11.858   2.818   2.961
  566DOPC   C1A 6779  11.547   3.057   3.385
  566DOPC   D2A 6780  11.515   2.817   3.857
  566DOPC   C3A 6781  11.462   2.883   4.337
  566DOPC   C4A 6782  11.386   2.710   4.802
  566DOPC   C1B 6783  11.868   2.649   3.383
  566DOPC   D2B 6784  11.977   2.587   3.872
  566DOPC   C3B 6785  11.910   2.656   4.335
  566DOPC   C4B 6786  11.923   2.755   4.827
  567DOPC   NC3 6787   5.606   4.164   2.712
  567DOPC   PO4 6788   5.704   4.553   2.664
  567DOPC   GL1 6789   5.886   4.663   3.079
  567DOPC   GL2 6790   5.789   4.380   3.099
  567DOPC   C1A 6791   5.873   4.710   3.535
  567DOPC   D2A 6792   5.893   4.617   4.045
  567DOPC   C3A 6793   5.653   4.532   4.466
  567DOPC   C4A 6794   5.580   4.448   4.968
  567DOPC   C1B 6795   5.971   4.214   3.438
  567DOPC   D2B 6796   6.123   4.083   3.880
  567DOPC   C3B 6797   5.995   4.168   4.316
  567DOPC   C4B 6798   6.034   4.328   4.782
  568DOPC   NC3 6799   3.634   8.926   2.603
  568DOPC   PO4 6800   3.875   9.192   2.781
  568DOPC   GL1 6801   3.816   9.075   3.167
  568DOPC   GL2 6802   3.683   8.809   3.077
  568DOPC   C1A 6803   3.812   9.112   3.603
  568DOPC   D2A 6804   3.798   9.123   4.097
  568DOPC   C3A 6805   3.703   8.949   4.519
  568DOPC   C4A 6806   3.947   8.688   4.854
  568DOPC   C1B 6807   3.610   8.614   3.463
  568DOPC   D2B 6808   3.461   8.415   3.902
  568DOPC   C3B 6809   3.387   8.553   4.347
  568DOPC   C4B 6810   3.439   8.605   4.838
  569DOPC   NC3 6811   5.895   5.001   2.744
  569DOPC   PO4 6812   5.706   5.340   2.819
  569DOPC   GL1 6813   5.869   5.324   3.173
  569DOPC   GL2 6814   6.053   5.088   3.184
  569DOPC   C1A 6815   5.832   5.459   3.567
  569DOPC   D2A 6816   5.873   5.602   4.042
  569DOPC   C3A 6817   5.710   5.304   4.378
  569DOPC   C4A 6818   5.490   5.116   4.800
  569DOPC   C1B 6819   6.237   5.090   3.593
  569DOPC   D2B 6820   6.354   5.219   4.072
  569DOPC   C3B 6821   6.134   4.977   4.410
  569DOPC   C4B 6822   5.895   4.826   4.813
  570DOPC   NC3 6823  16.313   9.617   2.502
  570DOPC   PO4 6824  16.419   0.004   2.484
  570DOPC   GL1 6825  16.469   0.122   2.908
  570DOPC   GL2 6826  16.523   9.802   2.940
  570DOPC   C1A 6827  16.377   0.121   3.347
  570DOPC   D2A 6828  16.402   0.046   3.857
  570DOPC   C3A 6829  16.258   0.028   4.315
  570DOPC   C4A 6830  15.951   0.012   4.712
  570DOPC   C1B 6831  16.573   9.659   3.376
  570DOPC   D2B 6832  16.620   9.541   3.871
  570DOPC   C3B 6833  16.530   9.557   4.345
  570DOPC   C4B 6834  16.448   9.555   4.833
  571DOPC   NC3 6835  17.542   1.288   2.556
  571DOPC   PO4 6836  17.239   1.247   2.813
  571DOPC   GL1 6837  17.331   1.130   3.213
  571DOPC   GL2 6838  17.629   1.087   3.183
  571DOPC   C1A 6839  17.289   1.163   3.659
  571DOPC   D2A 6840  17.234   1.120   4.147
  571DOPC   C3A 6841  17.113   1.387   4.511
  571DOPC   C4A 6842  16.953   1.565   4.951
  571DOPC   C1B 6843  17.689   0.880   3.603
  571DOPC   D2B 6844  17.676   0.739   4.098
  571DOPC   C3B 6845  17.496   0.877   4.518
  571DOPC   C4B 6846  17.389   1.175   4.903
  572DOPC   NC3 6847  12.194   1.818   2.459
  572DOPC   PO4 6848  11.824   1.872   2.598
  572DOPC   GL1 6849  11.888   1.729   2.986
  572DOPC   GL2 6850  11.614   1.829   3.096
  572DOPC   C1A 6851  12.174   1.939   3.244
  572DOPC   D2A 6852  12.222   2.160   3.700
  572DOPC   C3A 6853  12.158   2.219   4.174
  572DOPC   C4A 6854  12.090   2.277   4.672
  572DOPC   C1B 6855  11.764   1.857   3.526
  572DOPC   D2B 6856  12.033   1.750   3.955
  572DOPC   C3B 6857  11.969   1.825   4.434
  572DOPC   C4B 6858  11.847   1.861   4.921
  573DOPC   NC3 6859  18.006   9.914   2.506
  573DOPC   PO4 6860  17.672   9.880   2.734
  573DOPC   GL1 6861  17.565   9.636   3.120
  573DOPC   GL2 6862  17.885   9.606   3.133
  573DOPC   C1A 6863  17.561   9.521   3.563
  573DOPC   D2A 6864  17.576   9.442   4.061
  573DOPC   C3A 6865  17.822   9.412   4.454
  573DOPC   C4A 6866  18.096   9.318   4.858
  573DOPC   C1B 6867  18.083   9.549   3.552
  573DOPC   D2B 6868  18.350   9.499   3.995
  573DOPC   C3B 6869  18.333   9.573   4.468
  573DOPC   C4B 6870  18.416   9.693   4.953
  574DOPC   NC3 6871  17.998   4.512   2.690
  574DOPC   PO4 6872  17.728   4.686   2.921
  574DOPC   GL1 6873  17.854   4.485   3.245
  574DOPC   GL2 6874  18.047   4.277   3.122
  574DOPC   C1A 6875  18.033   4.598   3.630
  574DOPC   D2A 6876  18.270   4.480   4.052
  574DOPC   C3A 6877  18.102   4.460   4.486
  574DOPC   C4A 6878  17.892   4.501   4.929
  574DOPC   C1B 6879  18.369   4.234   3.465
  574DOPC   D2B 6880  18.512   4.053   3.931
  574DOPC   C3B 6881  18.445   4.082   4.404
  574DOPC   C4B 6882  18.156   4.004   4.810
  575DOPC   NC3 6883   8.760   4.028   2.547
  575DOPC   PO4 6884   9.076   4.210   2.704
  575DOPC   GL1 6885   8.871   4.285   3.076
  575DOPC   GL2 6886   8.659   4.078   3.017
  575DOPC   C1A 6887   8.818   4.496   3.487
  575DOPC   D2A 6888   8.827   4.736   3.960
  575DOPC   C3A 6889   8.966   4.694   4.424
  575DOPC   C4A 6890   9.074   4.567   4.897
  575DOPC   C1B 6891   8.474   4.088   3.421
  575DOPC   D2B 6892   8.486   4.360   3.848
  575DOPC   C3B 6893   8.781   4.273   4.202
  575DOPC   C4B 6894   9.060   4.127   4.593
  576DOPC   NC3 6895   8.050   2.053   2.767
  576DOPC   PO4 6896   7.759   2.158   3.018
  576DOPC   GL1 6897   7.875   1.934   3.359
  576DOPC   GL2 6898   8.138   1.865   3.186
  576DOPC   C1A 6899   7.806   1.896   3.813
  576DOPC   D2A 6900   7.550   1.750   4.235
  576DOPC   C3A 6901   7.651   1.839   4.700
  576DOPC   C4A 6902   7.689   2.051   5.150
  576DOPC   C1B 6903   8.452   1.760   3.463
  576DOPC   D2B 6904   8.644   1.904   3.897
  576DOPC   C3B 6905   8.463   1.807   4.330
  576DOPC   C4B 6906   8.181   1.894   4.747
  577DOPC   NC3 6907  11.837   0.513   2.633
  577DOPC   PO4 6908  11.859   0.871   2.823
  577DOPC   GL1 6909  11.532   0.998   3.090
  577DOPC   GL2 6910  11.507   0.693   3.137
  577DOPC   C1A 6911  11.699   0.960   3.495
  577DOPC   D2A 6912  11.979   0.708   3.830
  577DOPC   C3A 6913  12.011   0.606   4.288
  577DOPC   C4A 6914  11.895   0.722   4.753
  577DOPC   C1B 6915  11.759   0.450   3.437
  577DOPC   D2B 6916  12.028   0.191   3.777
  577DOPC   C3B 6917  12.056   0.094   4.232
  577DOPC   C4B 6918  11.975   0.219   4.704
  578DOPC   NC3 6919   5.915   5.737   2.617
  578DOPC   PO4 6920   6.172   5.992   2.775
  578DOPC   GL1 6921   6.071   5.803   3.117
  578DOPC   GL2 6922   5.778   5.777   3.114
  578DOPC   C1A 6923   6.153   6.008   3.495
  578DOPC   D2A 6924   5.995   6.185   3.938
  578DOPC   C3A 6925   6.013   6.106   4.399
  578DOPC   C4A 6926   5.964   5.986   4.878
  578DOPC   C1B 6927   5.655   5.942   3.540
  578DOPC   D2B 6928   5.507   5.990   4.025
  578DOPC   C3B 6929   5.625   5.809   4.458
  578DOPC   C4B 6930   5.795   5.518   4.826
  579DOPC   NC3 6931  12.808   0.510   2.618
  579DOPC   PO4 6932  13.082   0.762   2.775
  579DOPC   GL1 6933  13.079   0.603   3.193
  579DOPC   GL2 6934  12.885   0.379   3.076
  579DOPC   C1A 6935  12.951   0.674   3.635
  579DOPC   D2A 6936  12.827   0.686   4.128
  579DOPC   C3A 6937  12.801   0.667   4.602
  579DOPC   C4A 6938  12.741   0.804   5.070
  579DOPC   C1B 6939  12.667   0.276   3.448
  579DOPC   D2B 6940  12.452   0.470   3.864
  579DOPC   C3B 6941  12.507   0.325   4.311
  579DOPC   C4B 6942  12.544   0.039   4.712
  580DOPC   NC3 6943  19.211   1.802   2.808
  580DOPC   PO4 6944  19.325   2.169   2.912
  580DOPC   GL1 6945  19.145   2.013   3.228
  580DOPC   GL2 6946  18.860   2.042   3.140
  580DOPC   C1A 6947  19.228   2.147   3.629
  580DOPC   D2A 6948  18.976   2.318   4.011
  580DOPC   C3A 6949  19.243   2.122   4.337
  580DOPC   C4A 6950  19.410   1.963   4.777
  580DOPC   C1B 6951  18.741   2.251   3.531
  580DOPC   D2B 6952  18.462   2.240   3.952
  580DOPC   C3B 6953  18.624   2.191   4.377
  580DOPC   C4B 6954  18.919   2.110   4.740
  581DOPC   NC3 6955   8.233   4.026   2.812
  581DOPC   PO4 6956   8.004   4.339   2.687
  581DOPC   GL1 6957   8.029   4.483   3.103
  581DOPC   GL2 6958   8.080   4.225   3.226
  581DOPC   C1A 6959   8.221   4.638   3.470
  581DOPC   D2A 6960   8.289   4.831   3.929
  581DOPC   C3A 6961   8.420   4.648   4.334
  581DOPC   C4A 6962   8.616   4.385   4.698
  581DOPC   C1B 6963   8.040   4.175   3.684
  581DOPC   D2B 6964   8.277   3.968   4.093
  581DOPC   C3B 6965   8.237   4.016   4.569
  581DOPC   C4B 6966   8.022   4.003   5.023
  582DOPC   NC3 6967  10.667   1.678   2.872
  582DOPC   PO4 6968  10.777   2.044   2.767
  582DOPC   GL1 6969  10.679   2.375   3.020
  582DOPC   GL2 6970  10.428   2.191   3.087
  582DOPC   C1A 6971  10.839   2.388   3.437
  582DOPC   D2A 6972  10.703   2.202   3.889
  582DOPC   C3A 6973  10.745   2.184   4.355
  582DOPC   C4A 6974  10.748   2.009   4.820
  582DOPC   C1B 6975  10.570   1.941   3.447
  582DOPC   D2B 6976  10.708   1.691   3.878
  582DOPC   C3B 6977  10.512   1.747   4.312
  582DOPC   C4B 6978  10.277   1.821   4.748
  583DOPC   NC3 6979  16.039   2.767   2.717
  583DOPC   PO4 6980  15.662   2.696   2.576
  583DOPC   GL1 6981  15.457   2.598   2.976
  583DOPC   GL2 6982  15.685   2.807   3.047
  583DOPC   C1A 6983  15.498   2.510   3.414
  583DOPC   D2A 6984  15.554   2.272   3.869
  583DOPC   C3A 6985  15.509   2.403   4.332
  583DOPC   C4A 6986  15.452   2.823   4.609
  583DOPC   C1B 6987  15.688   3.032   3.442
  583DOPC   D2B 6988  15.759   3.258   3.906
  583DOPC   C3B 6989  15.784   3.154   4.376
  583DOPC   C4B 6990  15.892   2.980   4.844
  584DOPC   NC3 6991   8.220   8.506   2.859
  584DOPC   PO4 6992   8.502   8.765   2.976
  584DOPC   GL1 6993   8.486   8.871   3.410
  584DOPC   GL2 6994   8.267   8.645   3.421
  584DOPC   C1A 6995   8.666   8.969   3.829
  584DOPC   D2A 6996   8.712   8.898   4.344
  584DOPC   C3A 6997   8.901   8.864   4.796
  584DOPC   C4A 6998   9.070   9.057   5.242
  584DOPC   C1B 6999   8.280   8.645   3.874
  584DOPC   D2B 7000   8.320   8.569   4.369
  584DOPC   C3B 7001   8.523   8.496   4.779
  584DOPC   C4B 7002   8.733   8.556   5.224
  585DOPC   NC3 7003   4.356   7.173   2.557
  585DOPC   PO4 7004   4.658   7.436   2.571
  585DOPC   GL1 7005   4.475   7.527   2.913
  585DOPC   GL2 7006   4.193   7.451   2.904
  585DOPC   C1A 7007   4.496   7.489   3.347
  585DOPC   D2A 7008   4.396   7.573   3.837
  585DOPC   C3A 7009   4.653   7.580   4.233
  585DOPC   C4A 7010   4.940   7.517   4.637
  585DOPC   C1B 7011   4.031   7.311   3.315
  585DOPC   D2B 7012   3.951   7.255   3.821
  585DOPC   C3B 7013   4.226   7.248   4.221
  585DOPC   C4B 7014   4.508   7.267   4.639
  586DOPC   NC3 7015  17.432   0.314   2.691
  586DOPC   PO4 7016  17.788   0.370   2.521
  586DOPC   GL1 7017  17.916   0.318   2.934
  586DOPC   GL2 7018  17.898   0.648   2.972
  586DOPC   C1A 7019  17.872   0.060   3.317
  586DOPC   D2A 7020  17.770   9.914   3.789
  586DOPC   C3A 7021  17.833   9.890   4.252
  586DOPC   C4A 7022  17.950   9.838   4.729
  586DOPC   C1B 7023  18.077   0.945   3.292
  586DOPC   D2B 7024  18.148   1.120   3.773
  586DOPC   C3B 7025  18.144   0.933   4.219
  586DOPC   C4B 7026  18.264   0.739   4.669
  587DOPC   NC3 7027  10.988   4.018   2.269
  587DOPC   PO4 7028  10.808   4.217   2.568
  587DOPC   GL1 7029  10.708   3.990   2.955
  587DOPC   GL2 7030  11.025   3.989   3.012
  587DOPC   C1A 7031  10.652   3.870   3.377
  587DOPC   D2A 7032  10.793   3.935   3.864
  587DOPC   C3A 7033  10.966   3.913   4.309
  587DOPC   C4A 7034  10.886   4.080   4.772
  587DOPC   C1B 7035  11.116   4.080   3.476
  587DOPC   D2B 7036  11.163   4.283   3.968
  587DOPC   C3B 7037  11.228   4.351   4.456
  587DOPC   C4B 7038  11.362   4.342   4.953
  588DOPC   NC3 7039  18.131   3.873   2.754
  588DOPC   PO4 7040  18.535   3.893   2.709
  588DOPC   GL1 7041  18.581   3.915   3.141
  588DOPC   GL2 7042  18.272   3.869   3.205
  588DOPC   C1A 7043  18.666   3.713   3.518
  588DOPC   D2A 7044  18.456   3.533   3.926
  588DOPC   C3A 7045  18.409   3.558   4.386
  588DOPC   C4A 7046  18.387   3.538   4.868
  588DOPC   C1B 7047  18.127   3.839   3.659
  588DOPC   D2B 7048  18.035   3.875   4.175
  588DOPC   C3B 7049  17.933   3.606   4.580
  588DOPC   C4B 7050  17.953   3.300   4.990
  589DOPC   NC3 7051   8.427   6.765   2.490
  589DOPC   PO4 7052   8.142   7.031   2.583
  589DOPC   GL1 7053   8.122   6.999   3.054
  589DOPC   GL2 7054   8.394   6.855   3.006
  589DOPC   C1A 7055   8.246   7.126   3.483
  589DOPC   D2A 7056   8.382   7.263   3.970
  589DOPC   C3A 7057   8.561   7.002   4.324
  589DOPC   C4A 7058   8.755   6.706   4.669
  589DOPC   C1B 7059   8.697   6.885   3.362
  589DOPC   D2B 7060   8.958   6.836   3.806
  589DOPC   C3B 7061   8.981   6.582   4.215
  589DOPC   C4B 7062   9.078   6.283   4.609
  590DOPC   NC3 7063   6.242   7.157   2.630
  590DOPC   PO4 7064   6.558   6.911   2.583
  590DOPC   GL1 7065   6.574   6.631   2.910
  590DOPC   GL2 7066   6.254   6.685   2.942
  590DOPC   C1A 7067   6.739   6.640   3.339
  590DOPC   D2A 7068   6.867   6.697   3.837
  590DOPC   C3A 7069   6.672   6.768   4.275
  590DOPC   C4A 7070   6.377   6.747   4.678
  590DOPC   C1B 7071   6.236   6.499   3.344
  590DOPC   D2B 7072   6.459   6.362   3.775
  590DOPC   C3B 7073   6.442   6.324   4.244
  590DOPC   C4B 7074   6.400   6.214   4.726
  591DOPC   NC3 7075  18.169   7.584   2.656
  591DOPC   PO4 7076  18.513   7.481   2.838
  591DOPC   GL1 7077  18.428   7.763   3.130
  591DOPC   GL2 7078  18.113   7.708   3.098
  591DOPC   C1A 7079  18.477   7.655   3.543
  591DOPC   D2A 7080  18.238   7.502   3.941
  591DOPC   C3A 7081  18.232   7.519   4.395
  591DOPC   C4A 7082  18.324   7.258   4.790
  591DOPC   C1B 7083  17.962   7.507   3.475
  591DOPC   D2B 7084  17.748   7.330   3.909
  591DOPC   C3B 7085  17.823   7.187   4.365
  591DOPC   C4B 7086  17.887   6.957   4.816
  592DOPC   NC3 7087   8.576   7.755   2.749
  592DOPC   PO4 7088   8.606   8.161   2.739
  592DOPC   GL1 7089   8.559   8.325   3.164
  592DOPC   GL2 7090   8.565   8.016   3.233
  592DOPC   C1A 7091   8.737   8.505   3.547
  592DOPC   D2A 7092   8.915   8.557   4.014
  592DOPC   C3A 7093   8.911   8.381   4.452
  592DOPC   C4A 7094   8.914   8.170   4.903
  592DOPC   C1B 7095   8.823   7.990   3.611
  592DOPC   D2B 7096   9.077   8.050   4.051
  592DOPC   C3B 7097   9.041   7.843   4.473
  592DOPC   C4B 7098   8.824   7.658   4.878
  593DOPC   NC3 7099  10.550   0.857   2.678
  593DOPC   PO4 7100  10.876   0.707   2.872
  593DOPC   GL1 7101  10.740   0.592   3.267
  593DOPC   GL2 7102  10.476   0.709   3.169
  593DOPC   C1A 7103  10.715   0.642   3.712
  593DOPC   D2A 7104  10.515   0.873   4.130
  593DOPC   C3A 7105  10.557   0.996   4.606
  593DOPC   C4A 7106  10.500   1.040   5.113
  593DOPC   C1B 7107  10.378   0.990   3.500
  593DOPC   D2B 7108  10.330   1.325   3.880
  593DOPC   C3B 7109  10.229   1.320   4.336
  593DOPC   C4B 7110  10.176   1.309   4.819
  594DOPC   NC3 7111  10.569   7.194   2.819
  594DOPC   PO4 7112  10.855   7.460   2.738
  594DOPC   GL1 7113  10.852   7.499   3.148
  594DOPC   GL2 7114  10.559   7.549   3.158
  594DOPC   C1A 7115  10.773   7.193   3.455
  594DOPC   D2A 7116  10.733   7.095   3.952
  594DOPC   C3A 7117  10.915   7.263   4.365
  594DOPC   C4A 7118  10.937   7.326   4.863
  594DOPC   C1B 7119  10.274   7.263   3.395
  594DOPC   D2B 7120   9.993   7.179   3.820
  594DOPC   C3B 7121   9.861   7.121   4.280
  594DOPC   C4B 7122  10.061   7.119   4.739
  595DOPC   NC3 7123   5.039   3.205   2.741
  595DOPC   PO4 7124   5.233   3.561   2.780
  595DOPC   GL1 7125   5.351   3.372   3.125
  595DOPC   GL2 7126   5.042   3.338   3.205
  595DOPC   C1A 7127   5.436   3.566   3.499
  595DOPC   D2A 7128   5.354   3.645   3.968
  595DOPC   C3A 7129   5.307   3.479   4.397
  595DOPC   C4A 7130   5.177   3.348   4.856
  595DOPC   C1B 7131   4.960   3.472   3.641
  595DOPC   D2B 7132   4.867   3.680   4.082
  595DOPC   C3B 7133   4.850   3.665   4.558
  595DOPC   C4B 7134   4.687   3.592   5.020
  596DOPC   NC3 7135  15.974   3.584   2.598
  596DOPC   PO4 7136  16.149   3.275   2.779
  596DOPC   GL1 7137  16.149   3.614   3.067
  596DOPC   GL2 7138  15.830   3.579   3.049
  596DOPC   C1A 7139  16.189   3.627   3.517
  596DOPC   D2A 7140  16.221   3.528   4.017
  596DOPC   C3A 7141  16.021   3.611   4.442
  596DOPC   C4A 7142  15.827   3.838   4.848
  596DOPC   C1B 7143  15.664   3.557   3.469
  596DOPC   D2B 7144  15.383   3.592   3.889
  596DOPC   C3B 7145  15.509   3.613   4.348
  596DOPC   C4B 7146  15.586   3.398   4.799
  597DOPC   NC3 7147   7.588   4.104   2.520
  597DOPC   PO4 7148   7.782   3.806   2.709
  597DOPC   GL1 7149   7.803   4.005   2.999
  597DOPC   GL2 7150   7.650   4.252   2.984
  597DOPC   C1A 7151   7.724   3.894   3.398
  597DOPC   D2A 7152   7.638   3.828   3.885
  597DOPC   C3A 7153   7.773   4.050   4.277
  597DOPC   C4A 7154   7.762   4.293   4.706
  597DOPC   C1B 7155   7.643   4.394   3.403
  597DOPC   D2B 7156   7.520   4.346   3.893
  597DOPC   C3B 7157   7.418   4.455   4.340
  597DOPC   C4B 7158   7.218   4.347   4.777
  598DOPC   NC3 7159  16.576   0.481   2.577
  598DOPC   PO4 7160  16.972   0.504   2.652
  598DOPC   GL1 7161  16.810   0.444   2.990
  598DOPC   GL2 7162  16.607   0.664   3.033
  598DOPC   C1A 7163  16.855   0.068   3.201
  598DOPC   D2A 7164  16.868   9.944   3.678
  598DOPC   C3A 7165  16.824   9.952   4.163
  598DOPC   C4A 7166  16.682   9.989   4.649
  598DOPC   C1B 7167  16.585   0.558   3.471
  598DOPC   D2B 7168  16.789   0.413   3.911
  598DOPC   C3B 7169  16.628   0.415   4.351
  598DOPC   C4B 7170  16.313   0.364   4.733
  599DOPC   NC3 7171  10.598   8.791   2.616
  599DOPC   PO4 7172  10.907   8.995   2.760
  599DOPC   GL1 7173  10.797   8.895   3.119
  599DOPC   GL2 7174  10.542   8.744   3.093
  599DOPC   C1A 7175  10.896   9.005   3.524
  599DOPC   D2A 7176  10.893   8.914   4.017
  599DOPC   C3A 7177  10.623   9.103   4.355
  599DOPC   C4A 7178  10.227   9.196   4.645
  599DOPC   C1B 7179  10.417   8.816   3.516
  599DOPC   D2B 7180  10.330   8.834   4.018
  599DOPC   C3B 7181  10.317   8.677   4.478
  599DOPC   C4B 7182  10.263   8.396   4.892
  600DOPC   NC3 7183  19.247   8.915   2.376
  600DOPC   PO4 7184  18.957   8.849   2.654
  600DOPC   GL1 7185  18.944   8.835   3.086
  600DOPC   GL2 7186  19.101   8.582   3.121
  600DOPC   C1A 7187  18.935   8.934   3.524
  600DOPC   D2A 7188  19.085   8.770   3.970
  600DOPC   C3A 7189  19.051   8.892   4.415
  600DOPC   C4A 7190  18.972   8.919   4.893
  600DOPC   C1B 7191  19.022   8.404   3.558
  600DOPC   D2B 7192  18.953   8.278   4.073
  600DOPC   C3B 7193  18.985   8.397   4.562
  600DOPC   C4B 7194  19.122   8.464   5.056
  601DOPC   NC3 7195   5.758   8.686   2.629
  601DOPC   PO4 7196   5.966   8.376   2.790
  601DOPC   GL1 7197   5.924   8.446   3.213
  601DOPC   GL2 7198   5.864   8.730   3.158
  601DOPC   C1A 7199   5.665   8.385   3.582
  601DOPC   D2A 7200   5.416   8.560   3.991
  601DOPC   C3A 7201   5.474   8.695   4.444
  601DOPC   C4A 7202   5.473   8.886   4.905
  601DOPC   C1B 7203   5.945   8.815   3.588
  601DOPC   D2B 7204   5.846   8.836   4.084
  601DOPC   C3B 7205   5.877   9.026   4.520
  601DOPC   C4B 7206   6.104   9.387   4.766
  602DOPC   NC3 7207   0.398   3.497   2.664
  602DOPC   PO4 7208   0.088   3.748   2.655
  602DOPC   GL1 7209  19.905   3.806   3.072
  602DOPC   GL2 7210   0.205   3.711   3.103
  602DOPC   C1A 7211  19.924   3.752   3.512
  602DOPC   D2A 7212   0.094   3.553   3.949
  602DOPC   C3A 7213   0.207   3.698   4.383
  602DOPC   C4A 7214   0.480   3.843   4.773
  602DOPC   C1B 7215   0.354   3.487   3.470
  602DOPC   D2B 7216   0.507   3.208   3.862
  602DOPC   C3B 7217   0.412   3.215   4.319
  602DOPC   C4B 7218   0.405   3.345   4.794
  603DOPC   NC3 7219  17.466   6.562   2.622
  603DOPC   PO4 7220  17.171   6.431   2.855
  603DOPC   GL1 7221  17.330   6.227   3.200
  603DOPC   GL2 7222  17.600   6.375   3.166
  603DOPC   C1A 7223  17.167   6.399   3.583
  603DOPC   D2A 7224  17.112   6.735   3.962
  603DOPC   C3A 7225  17.103   6.500   4.371
  603DOPC   C4A 7226  17.080   6.256   4.808
  603DOPC   C1B 7227  17.637   6.604   3.553
  603DOPC   D2B 7228  17.636   6.830   4.004
  603DOPC   C3B 7229  17.530   6.769   4.454
  603DOPC   C4B 7230  17.196   6.753   4.810
  604DOPC   NC3 7231  19.469   7.924   2.462
  604DOPC   PO4 7232  19.670   8.108   2.762
  604DOPC   GL1 7233  19.422   8.253   3.097
  604DOPC   GL2 7234  19.611   8.493   3.128
  604DOPC   C1A 7235  19.509   8.051   3.492
  604DOPC   D2A 7236  19.665   7.988   3.977
  604DOPC   C3A 7237  19.651   7.820   4.409
  604DOPC   C4A 7238  19.944   7.476   4.602
  604DOPC   C1B 7239  19.837   8.449   3.524
  604DOPC   D2B 7240  19.987   8.435   4.009
  604DOPC   C3B 7241  19.854   8.343   4.453
  604DOPC   C4B 7242  19.504   8.193   4.767
  605DOPC   NC3 7243   4.246   4.947   2.544
  605DOPC   PO4 7244   4.119   4.574   2.614
  605DOPC   GL1 7245   3.868   4.696   2.918
  605DOPC   GL2 7246   3.962   4.969   2.937
  605DOPC   C1A 7247   3.840   4.602   3.333
  605DOPC   D2A 7248   3.802   4.819   3.791
  605DOPC   C3A 7249   3.940   4.779   4.249
  605DOPC   C4A 7250   4.185   4.817   4.694
  605DOPC   C1B 7251   3.929   5.146   3.356
  605DOPC   D2B 7252   3.895   5.484   3.744
  605DOPC   C3B 7253   4.012   5.562   4.203
  605DOPC   C4B 7254   4.207   5.681   4.649
  606DOPC   NC3 7255   2.895   0.705   2.604
  606DOPC   PO4 7256   2.717   0.388   2.768
  606DOPC   GL1 7257   3.002   0.284   3.071
  606DOPC   GL2 7258   3.119   0.574   3.042
  606DOPC   C1A 7259   2.837   0.222   3.479
  606DOPC   D2A 7260   2.505   0.167   3.850
  606DOPC   C3A 7261   2.484   0.297   4.306
  606DOPC   C4A 7262   2.459   0.469   4.776
  606DOPC   C1B 7263   3.076   0.700   3.460
  606DOPC   D2B 7264   3.064   0.890   3.932
  606DOPC   C3B 7265   3.042   0.671   4.354
  606DOPC   C4B 7266   2.977   0.454   4.795
  607DOPC   NC3 7267   6.496   5.620   2.658
  607DOPC   PO4 7268   6.227   5.417   2.882
  607DOPC   GL1 7269   6.287   5.466   3.305
  607DOPC   GL2 7270   6.502   5.680   3.207
  607DOPC   C1A 7271   6.295   5.583   3.719
  607DOPC   D2A 7272   6.351   5.840   4.117
  607DOPC   C3A 7273   6.166   5.603   4.466
  607DOPC   C4A 7274   6.422   5.693   4.857
  607DOPC   C1B 7275   6.664   5.905   3.570
  607DOPC   D2B 7276   6.840   6.059   4.017
  607DOPC   C3B 7277   6.776   5.937   4.474
  607DOPC   C4B 7278   6.825   5.970   4.971
  608DOPC   NC3 7279  18.923   6.965   2.590
  608DOPC   PO4 7280  18.974   6.753   2.920
  608DOPC   GL1 7281  19.235   7.106   2.976
  608DOPC   GL2 7282  18.962   7.264   2.968
  608DOPC   C1A 7283  19.356   7.229   3.370
  608DOPC   D2A 7284  19.158   7.133   3.819
  608DOPC   C3A 7285  19.019   7.110   4.256
  608DOPC   C4A 7286  18.835   7.104   4.728
  608DOPC   C1B 7287  18.863   7.343   3.407
  608DOPC   D2B 7288  18.858   7.553   3.864
  608DOPC   C3B 7289  18.742   7.518   4.313
  608DOPC   C4B 7290  18.703   7.598   4.789
  609DOPC   NC3 7291  13.769   2.754   2.420
  609DOPC   PO4 7292  13.649   2.932   2.745
  609DOPC   GL1 7293  13.775   2.892   3.131
  609DOPC   GL2 7294  13.472   3.004   3.183
  609DOPC   C1A 7295  13.950   2.670   3.494
  609DOPC   D2A 7296  14.163   2.500   3.936
  609DOPC   C3A 7297  14.056   2.586   4.404
  609DOPC   C4A 7298  13.904   2.728   4.861
  609DOPC   C1B 7299  13.581   3.010   3.596
  609DOPC   D2B 7300  13.805   2.860   4.018
  609DOPC   C3B 7301  13.616   2.884   4.446
  609DOPC   C4B 7302  13.373   2.767   4.862
  610DOPC   NC3 7303   2.996   8.477   2.492
  610DOPC   PO4 7304   3.323   8.559   2.709
  610DOPC   GL1 7305   3.300   8.524   3.133
  610DOPC   GL2 7306   3.148   8.260   3.082
  610DOPC   C1A 7307   3.121   8.556   3.535
  610DOPC   D2A 7308   2.928   8.350   3.937
  610DOPC   C3A 7309   3.058   8.145   4.332
  610DOPC   C4A 7310   3.309   8.087   4.753
  610DOPC   C1B 7311   2.906   8.106   3.440
  610DOPC   D2B 7312   2.584   7.983   3.807
  610DOPC   C3B 7313   2.566   7.985   4.272
  610DOPC   C4B 7314   2.370   8.129   4.695
  611DOPC   NC3 7315   0.364   7.943   2.438
  611DOPC   PO4 7316   0.656   8.076   2.678
  611DOPC   GL1 7317   0.446   7.823   2.901
  611DOPC   GL2 7318   0.147   7.910   2.860
  611DOPC   C1A 7319   0.537   7.871   3.311
  611DOPC   D2A 7320   0.654   7.820   3.792
  611DOPC   C3A 7321   0.642   7.953   4.241
  611DOPC   C4A 7322   0.558   8.073   4.719
  611DOPC   C1B 7323   0.023   7.960   3.301
  611DOPC   D2B 7324   0.146   7.999   3.790
  611DOPC   C3B 7325   0.124   7.950   4.253
  611DOPC   C4B 7326   0.049   7.963   4.739
  612DOPC   NC3 7327   8.759   4.575   2.637
  612DOPC   PO4 7328   8.460   4.481   2.877
  612DOPC   GL1 7329   8.585   4.773   3.163
  612DOPC   GL2 7330   8.862   4.720   3.073
  612DOPC   C1A 7331   8.616   4.961   3.561
  612DOPC   D2A 7332   8.604   5.230   3.988
  612DOPC   C3A 7333   8.623   5.114   4.438
  612DOPC   C4A 7334   8.637   4.877   4.872
  612DOPC   C1B 7335   9.175   4.838   3.348
  612DOPC   D2B 7336   9.266   4.994   3.813
  612DOPC   C3B 7337   9.142   5.151   4.242
  612DOPC   C4B 7338   9.033   5.237   4.729
  613DOPC   NC3 7339  16.408   9.102   2.544
  613DOPC   PO4 7340  16.352   9.300   2.895
  613DOPC   GL1 7341  16.210   9.337   3.310
  613DOPC   GL2 7342  16.479   9.208   3.413
  613DOPC   C1A 7343  16.071   9.241   3.714
  613DOPC   D2A 7344  16.022   9.124   4.195
  613DOPC   C3A 7345  16.267   9.128   4.594
  613DOPC   C4A 7346  16.222   9.138   5.084
  613DOPC   C1B 7347  16.555   9.035   3.851
  613DOPC   D2B 7348  16.683   8.762   4.281
  613DOPC   C3B 7349  16.911   8.677   4.708
  613DOPC   C4B 7350  17.045   8.795   5.182
  614DOPC   NC3 7351  17.565   2.020   2.451
  614DOPC   PO4 7352  17.673   2.031   2.834
  614DOPC   GL1 7353  17.772   1.759   3.122
  614DOPC   GL2 7354  17.582   1.536   3.006
  614DOPC   C1A 7355  17.645   1.936   3.507
  614DOPC   D2A 7356  17.462   2.054   3.960
  614DOPC   C3A 7357  17.577   2.148   4.415
  614DOPC   C4A 7358  17.715   2.479   4.764
  614DOPC   C1B 7359  17.309   1.578   3.362
  614DOPC   D2B 7360  17.220   1.615   3.853
  614DOPC   C3B 7361  17.452   1.646   4.251
  614DOPC   C4B 7362  17.483   1.684   4.735
  615DOPC   NC3 7363   3.610   3.709   2.667
  615DOPC   PO4 7364   3.297   3.563   2.887
  615DOPC   GL1 7365   3.300   3.792   3.233
  615DOPC   GL2 7366   3.623   3.807   3.142
  615DOPC   C1A 7367   3.237   3.690   3.663
  615DOPC   D2A 7368   3.284   3.422   4.093
  615DOPC   C3A 7369   3.328   3.391   4.561
  615DOPC   C4A 7370   3.272   3.394   5.058
  615DOPC   C1B 7371   3.866   3.608   3.467
  615DOPC   D2B 7372   3.998   3.424   3.924
  615DOPC   C3B 7373   3.865   3.499   4.372
  615DOPC   C4B 7374   3.747   3.515   4.850
  616DOPC   NC3 7375  10.384   6.149   2.532
  616DOPC   PO4 7376  10.751   6.243   2.668
  616DOPC   GL1 7377  10.711   6.331   3.097
  616DOPC   GL2 7378  10.402   6.386   3.036
  616DOPC   C1A 7379  10.740   6.151   3.522
  616DOPC   D2A 7380  10.708   5.908   3.981
  616DOPC   C3A 7381  10.747   5.871   4.465
  616DOPC   C4A 7382  10.888   5.855   4.957
  616DOPC   C1B 7383  10.228   6.171   3.402
  616DOPC   D2B 7384  10.220   5.810   3.771
  616DOPC   C3B 7385  10.234   5.775   4.251
  616DOPC   C4B 7386  10.262   5.975   4.706
  617DOPC   NC3 7387  14.595   3.428   2.571
  617DOPC   PO4 7388  14.213   3.557   2.574
  617DOPC   GL1 7389  14.234   3.524   2.951
  617DOPC   GL2 7390  14.411   3.291   3.002
  617DOPC   C1A 7391  14.410   3.810   3.212
  617DOPC   D2A 7392  14.556   3.858   3.698
  617DOPC   C3A 7393  14.492   3.860   4.165
  617DOPC   C4A 7394  14.298   3.764   4.619
  617DOPC   C1B 7395  14.478   3.370   3.431
  617DOPC   D2B 7396  14.412   3.420   3.920
  617DOPC   C3B 7397  14.517   3.388   4.368
  617DOPC   C4B 7398  14.651   3.386   4.843
  618DOPC   NC3 7399  12.197   9.368   2.608
  618DOPC   PO4 7400  11.941   9.242   2.891
  618DOPC   GL1 7401  12.208   9.357   3.193
  618DOPC   GL2 7402  12.113   9.652   3.140
  618DOPC   C1A 7403  12.194   9.386   3.629
  618DOPC   D2A 7404  12.131   9.581   4.087
  618DOPC   C3A 7405  11.973   9.476   4.523
  618DOPC   C4A 7406  11.728   9.301   4.921
  618DOPC   C1B 7407  11.878   9.774   3.530
  618DOPC   D2B 7408  11.631   9.908   3.979
  618DOPC   C3B 7409  11.646   9.894   4.468
  618DOPC   C4B 7410  11.821   9.793   4.939
  619DOPC   NC3 7411   3.690   8.239   2.580
  619DOPC   PO4 7412   3.892   8.519   2.779
  619DOPC   GL1 7413   3.897   8.307   3.170
  619DOPC   GL2 7414   3.623   8.213   3.060
  619DOPC   C1A 7415   3.891   8.237   3.623
  619DOPC   D2A 7416   3.897   8.225   4.126
  619DOPC   C3A 7417   3.779   8.309   4.563
  619DOPC   C4A 7418   3.724   8.219   5.052
  619DOPC   C1B 7419   3.425   8.118   3.441
  619DOPC   D2B 7420   3.246   7.938   3.873
  619DOPC   C3B 7421   3.509   7.903   4.261
  619DOPC   C4B 7422   3.755   7.824   4.680
  620DOPC   NC3 7423   5.061   9.919   2.709
  620DOPC   PO4 7424   5.317   9.620   2.805
  620DOPC   GL1 7425   5.221   9.612   3.233
  620DOPC   GL2 7426   4.961   9.772   3.137
  620DOPC   C1A 7427   5.248   9.551   3.688
  620DOPC   D2A 7428   5.145   9.548   4.180
  620DOPC   C3A 7429   5.181   9.636   4.638
  620DOPC   C4A 7430   5.295   9.776   5.099
  620DOPC   C1B 7431   4.650   9.939   3.412
  620DOPC   D2B 7432   4.343   9.771   3.766
  620DOPC   C3B 7433   4.386   9.915   4.203
  620DOPC   C4B 7434   4.565   9.929   4.659
  621DOPC   NC3 7435  19.395   9.300   2.753
  621DOPC   PO4 7436  19.054   9.265   2.945
  621DOPC   GL1 7437  19.181   9.291   3.372
  621DOPC   GL2 7438  19.384   9.478   3.256
  621DOPC   C1A 7439  19.294   9.192   3.808
  621DOPC   D2A 7440  19.430   9.224   4.313
  621DOPC   C3A 7441  19.352   9.238   4.803
  621DOPC   C4A 7442  19.115   9.212   5.272
  621DOPC   C1B 7443  19.525   9.632   3.641
  621DOPC   D2B 7444  19.623   9.888   4.059
  621DOPC   C3B 7445  19.626   9.721   4.493
  621DOPC   C4B 7446  19.858   9.549   4.883
  622DOPC   NC3 7447   2.607   9.166   2.669
  622DOPC   PO4 7448   2.633   8.778   2.602
  622DOPC   GL1 7449   2.858   8.606   2.960
  622DOPC   GL2 7450   3.036   8.861   2.944
  622DOPC   C1A 7451   2.646   8.570   3.374
  622DOPC   D2A 7452   2.460   8.566   3.860
  622DOPC   C3A 7453   2.613   8.495   4.314
  622DOPC   C4A 7454   2.952   8.509   4.686
  622DOPC   C1B 7455   3.296   8.971   3.291
  622DOPC   D2B 7456   3.356   8.935   3.800
  622DOPC   C3B 7457   3.012   8.840   4.128
  622DOPC   C4B 7458   2.678   8.969   4.482
  623DOPC   NC3 7459   7.655   1.273   2.687
  623DOPC   PO4 7460   7.872   1.599   2.765
  623DOPC   GL1 7461   7.611   1.715   3.065
  623DOPC   GL2 7462   7.393   1.528   2.993
  623DOPC   C1A 7463   7.571   1.598   3.484
  623DOPC   D2A 7464   7.297   1.417   3.873
  623DOPC   C3A 7465   7.167   1.337   4.329
  623DOPC   C4A 7466   6.786   1.402   4.655
  623DOPC   C1B 7467   7.286   1.217   3.320
  623DOPC   D2B 7468   7.227   0.912   3.733
  623DOPC   C3B 7469   7.302   0.812   4.190
  623DOPC   C4B 7470   7.351   0.610   4.636
  624DOPC   NC3 7471   8.077   3.428   2.552
  624DOPC   PO4 7472   8.045   3.398   2.949
  624DOPC   GL1 7473   8.135   3.746   3.212
  624DOPC   GL2 7474   8.436   3.696   3.114
  624DOPC   C1A 7475   8.083   3.653   3.669
  624DOPC   D2A 7476   7.994   3.543   4.161
  624DOPC   C3A 7477   7.876   3.646   4.612
  624DOPC   C4A 7478   7.748   3.587   5.098
  624DOPC   C1B 7479   8.548   3.539   3.510
  624DOPC   D2B 7480   8.476   3.465   4.001
  624DOPC   C3B 7481   8.494   3.322   4.464
  624DOPC   C4B 7482   8.494   3.078   4.913
  625DOPC   NC3 7483  16.498   6.518   2.425
  625DOPC   PO4 7484  16.683   6.699   2.731
  625DOPC   GL1 7485  16.539   6.837   3.131
  625DOPC   GL2 7486  16.491   6.524   3.150
  625DOPC   C1A 7487  16.652   6.823   3.561
  625DOPC   D2A 7488  16.627   6.916   4.049
  625DOPC   C3A 7489  16.744   6.839   4.490
  625DOPC   C4A 7490  16.723   6.629   4.930
  625DOPC   C1B 7491  16.673   6.309   3.501
  625DOPC   D2B 7492  16.795   6.323   3.999
  625DOPC   C3B 7493  16.625   6.331   4.456
  625DOPC   C4B 7494  16.377   6.273   4.892
  626DOPC   NC3 7495  11.018   5.804   2.524
  626DOPC   PO4 7496  11.340   5.588   2.599
  626DOPC   GL1 7497  11.464   5.853   2.870
  626DOPC   GL2 7498  11.280   6.102   2.792
  626DOPC   C1A 7499  11.415   5.740   3.293
  626DOPC   D2A 7500  11.477   5.612   3.769
  626DOPC   C3A 7501  11.499   5.644   4.226
  626DOPC   C4A 7502  11.308   5.676   4.679
  626DOPC   C1B 7503  11.176   6.227   3.205
  626DOPC   D2B 7504  11.222   6.061   3.683
  626DOPC   C3B 7505  11.173   6.065   4.148
  626DOPC   C4B 7506  11.139   6.156   4.631
  627DOPC   NC3 7507  19.776   2.938   2.619
  627DOPC   PO4 7508  19.590   2.624   2.759
  627DOPC   GL1 7509  19.790   2.576   3.097
  627DOPC   GL2 7510  19.888   2.866   3.119
  627DOPC   C1A 7511  19.576   2.515   3.464
  627DOPC   D2A 7512  19.430   2.557   3.928
  627DOPC   C3A 7513  19.508   2.562   4.375
  627DOPC   C4A 7514  19.764   2.589   4.782
  627DOPC   C1B 7515  19.817   2.997   3.557
  627DOPC   D2B 7516  19.855   3.082   4.060
  627DOPC   C3B 7517  19.652   3.035   4.485
  627DOPC   C4B 7518  19.416   2.930   4.906
  628DOPC   NC3 7519   1.490   2.500   2.499
  628DOPC   PO4 7520   1.831   2.427   2.700
  628DOPC   GL1 7521   1.827   2.373   3.126
  628DOPC   GL2 7522   2.086   2.191   3.052
  628DOPC   C1A 7523   1.779   2.184   3.518
  628DOPC   D2A 7524   1.886   1.876   3.902
  628DOPC   C3A 7525   1.844   2.029   4.346
  628DOPC   C4A 7526   2.083   2.163   4.761
  628DOPC   C1B 7527   2.250   1.955   3.413
  628DOPC   D2B 7528   2.440   1.834   3.867
  628DOPC   C3B 7529   2.290   1.783   4.320
  628DOPC   C4B 7530   1.975   1.657   4.689
  629DOPC   NC3 7531  18.648   1.313   2.692
  629DOPC   PO4 7532  18.715   1.671   2.855
  629DOPC   GL1 7533  18.929   1.595   3.177
  629DOPC   GL2 7534  18.891   1.288   3.168
  629DOPC   C1A 7535  18.835   1.761   3.580
  629DOPC   D2A 7536  18.825   1.836   4.082
  629DOPC   C3A 7537  19.038   1.666   4.472
  629DOPC   C4A 7538  19.315   1.487   4.850
  629DOPC   C1B 7539  18.990   1.278   3.610
  629DOPC   D2B 7540  19.138   1.283   4.102
  629DOPC   C3B 7541  19.116   1.150   4.557
  629DOPC   C4B 7542  19.038   1.091   5.054
  630DOPC   NC3 7543   4.345   3.716   2.828
  630DOPC   PO4 7544   4.190   4.056   2.675
  630DOPC   GL1 7545   4.403   4.190   2.995
  630DOPC   GL2 7546   4.213   4.415   3.080
  630DOPC   C1A 7547   4.250   3.953   3.342
  630DOPC   D2A 7548   4.067   3.944   3.806
  630DOPC   C3A 7549   4.002   3.983   4.271
  630DOPC   C4A 7550   3.907   4.001   4.755
  630DOPC   C1B 7551   4.253   4.409   3.551
  630DOPC   D2B 7552   4.235   4.394   4.062
  630DOPC   C3B 7553   4.266   4.333   4.538
  630DOPC   C4B 7554   4.305   4.227   5.028
  631DOPC   NC3 7555  15.913   2.273   2.545
  631DOPC   PO4 7556  15.884   2.322   2.935
  631DOPC   GL1 7557  16.169   2.021   3.082
  631DOPC   GL2 7558  15.984   1.801   2.993
  631DOPC   C1A 7559  16.186   1.960   3.523
  631DOPC   D2A 7560  16.018   1.979   4.000
  631DOPC   C3A 7561  16.097   2.087   4.460
  631DOPC   C4A 7562  16.085   1.999   4.959
  631DOPC   C1B 7563  15.738   1.724   3.363
  631DOPC   D2B 7564  15.421   1.761   3.758
  631DOPC   C3B 7565  15.543   1.851   4.204
  631DOPC   C4B 7566  15.634   1.987   4.669
  632DOPC   NC3 7567  19.653   3.541   2.758
  632DOPC   PO4 7568  19.906   3.330   2.973
  632DOPC   GL1 7569  19.626   3.397   3.333
  632DOPC   GL2 7570  19.509   3.649   3.194
  632DOPC   C1A 7571  19.619   3.462   3.799
  632DOPC   D2A 7572  19.705   3.551   4.303
  632DOPC   C3A 7573  19.877   3.412   4.738
  632DOPC   C4A 7574  19.785   3.187   5.187
  632DOPC   C1B 7575  19.426   3.879   3.571
  632DOPC   D2B 7576  19.368   3.991   4.054
  632DOPC   C3B 7577  19.298   3.834   4.486
  632DOPC   C4B 7578  19.350   3.416   4.740
  633DOPC   NC3 7579  18.249   8.066   2.492
  633DOPC   PO4 7580  17.973   8.047   2.773
  633DOPC   GL1 7581  18.237   8.143   3.024
  633DOPC   GL2 7582  18.260   8.424   3.056
  633DOPC   C1A 7583  18.148   8.022   3.429
  633DOPC   D2A 7584  18.116   8.166   3.911
  633DOPC   C3A 7585  18.164   8.047   4.364
  633DOPC   C4A 7586  18.268   7.846   4.804
  633DOPC   C1B 7587  18.170   8.518   3.502
  633DOPC   D2B 7588  18.107   8.682   3.973
  633DOPC   C3B 7589  17.978   8.547   4.411
  633DOPC   C4B 7590  17.877   8.371   4.868
  634DOPC   NC3 7591   3.487   4.763   2.242
  634DOPC   PO4 7592   3.705   4.938   2.529
  634DOPC   GL1 7593   3.500   4.987   2.876
  634DOPC   GL2 7594   3.615   5.253   2.976
  634DOPC   C1A 7595   3.457   4.931   3.292
  634DOPC   D2A 7596   3.319   5.018   3.760
  634DOPC   C3A 7597   3.364   4.758   4.153
  634DOPC   C4A 7598   3.260   4.715   4.641
  634DOPC   C1B 7599   3.505   5.425   3.384
  634DOPC   D2B 7600   3.375   5.562   3.853
  634DOPC   C3B 7601   3.223   5.302   4.223
  634DOPC   C4B 7602   3.151   5.245   4.719
  635DOPC   NC3 7603   7.260   8.636   2.666
  635DOPC   PO4 7604   6.920   8.689   2.873
  635DOPC   GL1 7605   7.098   8.479   3.198
  635DOPC   GL2 7606   7.336   8.682   3.154
  635DOPC   C1A 7607   7.088   8.499   3.638
  635DOPC   D2A 7608   7.306   8.609   4.079
  635DOPC   C3A 7609   7.269   8.586   4.543
  635DOPC   C4A 7610   7.197   8.609   5.029
  635DOPC   C1B 7611   7.340   8.956   3.514
  635DOPC   D2B 7612   7.354   9.108   3.991
  635DOPC   C3B 7613   7.495   9.051   4.438
  635DOPC   C4B 7614   7.789   9.099   4.840
  636DOPC   NC3 7615   6.465   3.544   2.470
  636DOPC   PO4 7616   6.718   3.788   2.670
  636DOPC   GL1 7617   6.391   3.902   2.973
  636DOPC   GL2 7618   6.325   3.576   2.924
  636DOPC   C1A 7619   6.465   4.051   3.412
  636DOPC   D2A 7620   6.606   4.233   3.877
  636DOPC   C3A 7621   6.741   4.053   4.295
  636DOPC   C4A 7622   6.910   3.892   4.745
  636DOPC   C1B 7623   6.228   3.387   3.309
  636DOPC   D2B 7624   6.110   3.325   3.794
  636DOPC   C3B 7625   6.274   3.449   4.218
  636DOPC   C4B 7626   6.441   3.484   4.688
  637DOPC   NC3 7627   6.458   8.476   2.826
  637DOPC   PO4 7628   6.425   8.097   2.943
  637DOPC   GL1 7629   6.360   8.408   3.269
  637DOPC   GL2 7630   6.666   8.385   3.261
  637DOPC   C1A 7631   6.460   8.623   3.634
  637DOPC   D2A 7632   6.745   8.606   4.050
  637DOPC   C3A 7633   6.471   8.346   4.344
  637DOPC   C4A 7634   6.187   8.051   4.646
  637DOPC   C1B 7635   6.688   8.130   3.629
  637DOPC   D2B 7636   6.831   7.707   3.890
  637DOPC   C3B 7637   6.711   7.831   4.326
  637DOPC   C4B 7638   6.690   8.113   4.733
  638DOPC   NC3 7639   8.799   0.625   2.567
  638DOPC   PO4 7640   8.502   0.341   2.556
  638DOPC   GL1 7641   8.535   0.271   2.979
  638DOPC   GL2 7642   8.776   0.470   3.025
  638DOPC   C1A 7643   8.442   0.153   3.405
  638DOPC   D2A 7644   8.402   0.118   3.905
  638DOPC   C3A 7645   8.554   0.064   4.349
  638DOPC   C4A 7646   8.717   9.827   4.751
  638DOPC   C1B 7647   8.779   0.632   3.462
  638DOPC   D2B 7648   8.681   0.847   3.930
  638DOPC   C3B 7649   8.710   0.632   4.362
  638DOPC   C4B 7650   8.908   0.307   4.699
  639DOPC   NC3 7651   0.426   6.522   2.560
  639DOPC   PO4 7652   0.317   6.728   2.891
  639DOPC   GL1 7653   0.097   6.513   3.175
  639DOPC   GL2 7654   0.041   6.264   2.999
  639DOPC   C1A 7655   0.295   6.397   3.564
  639DOPC   D2A 7656   0.501   6.277   4.006
  639DOPC   C3A 7657   0.371   6.581   4.342
  639DOPC   C4A 7658   0.263   6.737   4.796
  639DOPC   C1B 7659  19.961   6.049   3.391
  639DOPC   D2B 7660  19.967   6.085   3.890
  639DOPC   C3B 7661   0.112   6.140   4.335
  639DOPC   C4B 7662   0.404   6.226   4.732
  640DOPC   NC3 7663   2.992   4.543   2.806
  640DOPC   PO4 7664   3.125   4.856   2.591
  640DOPC   GL1 7665   3.065   4.961   3.011
  640DOPC   GL2 7666   2.770   4.994   2.929
  640DOPC   C1A 7667   3.007   4.738   3.398
  640DOPC   D2A 7668   2.970   4.551   3.857
  640DOPC   C3A 7669   2.845   4.712   4.274
  640DOPC   C4A 7670   2.782   4.901   4.722
  640DOPC   C1B 7671   2.702   5.133   3.349
  640DOPC   D2B 7672   2.816   5.091   3.846
  640DOPC   C3B 7673   2.716   5.208   4.292
  640DOPC   C4B 7674   2.609   5.388   4.731
  641DOPC   NC3 7675   0.915   4.448   2.573
  641DOPC   PO4 7676   1.287   4.444   2.707
  641DOPC   GL1 7677   1.158   4.639   3.070
  641DOPC   GL2 7678   0.866   4.536   3.048
  641DOPC   C1A 7679   1.223   4.631   3.512
  641DOPC   D2A 7680   1.360   4.619   4.007
  641DOPC   C3A 7681   1.389   4.710   4.480
  641DOPC   C4A 7682   1.582   4.587   4.922
  641DOPC   C1B 7683   0.707   4.538   3.480
  641DOPC   D2B 7684   0.605   4.518   3.987
  641DOPC   C3B 7685   0.910   4.483   4.364
  641DOPC   C4B 7686   1.255   4.235   4.643
  642DOPC   NC3 7687   3.023   9.821   2.423
  642DOPC   PO4 7688   2.941   9.529   2.684
  642DOPC   GL1 7689   3.154   9.389   3.045
  642DOPC   GL2 7690   3.296   9.679   3.011
  642DOPC   C1A 7691   3.006   9.335   3.485
  642DOPC   D2A 7692   2.890   9.323   3.983
  642DOPC   C3A 7693   2.910   9.434   4.452
  642DOPC   C4A 7694   2.933   9.594   4.925
  642DOPC   C1B 7695   3.135   9.818   3.382
  642DOPC   D2B 7696   2.758   9.741   3.710
  642DOPC   C3B 7697   2.695   9.810   4.172
  642DOPC   C4B 7698   2.743   9.992   4.630
  643DOPC   NC3 7699  16.580   3.551   2.714
  643DOPC   PO4 7700  16.961   3.638   2.832
  643DOPC   GL1 7701  16.894   3.875   3.216
  643DOPC   GL2 7702  16.633   3.677   3.217
  643DOPC   C1A 7703  16.858   3.871   3.672
  643DOPC   D2A 7704  16.838   3.819   4.173
  643DOPC   C3A 7705  16.820   3.665   4.616
  643DOPC   C4A 7706  16.572   3.683   5.051
  643DOPC   C1B 7707  16.653   3.423   3.608
  643DOPC   D2B 7708  16.705   3.314   4.108
  643DOPC   C3B 7709  16.455   3.322   4.521
  643DOPC   C4B 7710  16.147   3.424   4.912
  644DOPC   NC3 7711   8.577   9.672   2.561
  644DOPC   PO4 7712   8.318   9.844   2.817
  644DOPC   GL1 7713   8.234   9.487   3.050
  644DOPC   GL2 7714   8.463   9.327   2.963
  644DOPC   C1A 7715   8.177   9.626   3.488
  644DOPC   D2A 7716   8.139   9.678   3.990
  644DOPC   C3A 7717   8.418   9.556   4.359
  644DOPC   C4A 7718   8.742   9.313   4.653
  644DOPC   C1B 7719   8.593   9.333   3.401
  644DOPC   D2B 7720   8.622   9.496   3.885
  644DOPC   C3B 7721   8.920   9.577   4.256
  644DOPC   C4B 7722   9.177   9.582   4.691
  645DOPC   NC3 7723  18.329   6.727   2.600
  645DOPC   PO4 7724  18.447   6.377   2.746
  645DOPC   GL1 7725  18.536   6.668   3.068
  645DOPC   GL2 7726  18.241   6.608   3.135
  645DOPC   C1A 7727  18.639   6.862   3.470
  645DOPC   D2A 7728  18.619   7.109   3.906
  645DOPC   C3A 7729  18.507   6.984   4.346
  645DOPC   C4A 7730  18.408   6.751   4.776
  645DOPC   C1B 7731  18.120   6.803   3.515
  645DOPC   D2B 7732  18.127   6.971   3.988
  645DOPC   C3B 7733  18.048   6.708   4.371
  645DOPC   C4B 7734  17.986   6.427   4.776
  646DOPC   NC3 7735  13.316   3.693   2.752
  646DOPC   PO4 7736  13.718   3.776   2.782
  646DOPC   GL1 7737  13.885   3.697   3.180
  646DOPC   GL2 7738  13.667   3.882   3.316
  646DOPC   C1A 7739  14.071   3.720   3.577
  646DOPC   D2A 7740  14.012   3.725   4.073
  646DOPC   C3A 7741  13.801   3.703   4.482
  646DOPC   C4A 7742  13.911   3.992   4.855
  646DOPC   C1B 7743  13.690   4.011   3.776
  646DOPC   D2B 7744  13.690   4.159   4.284
  646DOPC   C3B 7745  13.559   4.364   4.727
  646DOPC   C4B 7746  13.376   4.602   5.156
  647DOPC   NC3 7747  10.032   7.328   2.693
  647DOPC   PO4 7748  10.240   7.637   2.841
  647DOPC   GL1 7749  10.158   7.700   3.275
  647DOPC   GL2 7750   9.912   7.537   3.199
  647DOPC   C1A 7751  10.196   7.641   3.726
  647DOPC   D2A 7752  10.155   7.528   4.214
  647DOPC   C3A 7753   9.856   7.575   4.575
  647DOPC   C4A 7754   9.431   7.687   4.815
  647DOPC   C1B 7755   9.668   7.504   3.570
  647DOPC   D2B 7756   9.307   7.602   3.912
  647DOPC   C3B 7757   9.421   7.448   4.337
  647DOPC   C4B 7758   9.539   7.189   4.750
  648DOPC   NC3 7759  10.922   9.417   3.014
  648DOPC   PO4 7760  10.884   9.751   2.789
  648DOPC   GL1 7761  10.809   9.847   3.190
  648DOPC   GL2 7762  11.140   9.852   3.179
  648DOPC   C1A 7763  10.840   9.631   3.578
  648DOPC   D2A 7764  11.087   9.403   3.955
  648DOPC   C3A 7765  11.021   9.602   4.384
  648DOPC   C4A 7766  10.912   9.817   4.831
  648DOPC   C1B 7767  11.360   9.665   3.532
  648DOPC   D2B 7768  11.663   9.420   3.864
  648DOPC   C3B 7769  11.511   9.437   4.303
  648DOPC   C4B 7770  11.336   9.546   4.761
  649DOPC   NC3 7771   4.506   2.133   2.744
  649DOPC   PO4 7772   4.343   2.490   2.833
  649DOPC   GL1 7773   4.106   2.380   3.162
  649DOPC   GL2 7774   4.203   2.078   3.123
  649DOPC   C1A 7775   4.190   2.415   3.597
  649DOPC   D2A 7776   4.358   2.400   4.067
  649DOPC   C3A 7777   4.278   2.191   4.481
  649DOPC   C4A 7778   4.135   1.926   4.881
  649DOPC   C1B 7779   4.349   1.911   3.526
  649DOPC   D2B 7780   4.438   1.847   4.028
  649DOPC   C3B 7781   4.330   1.679   4.457
  649DOPC   C4B 7782   3.985   1.451   4.717
  650DOPC   NC3 7783   9.105   1.351   2.928
  650DOPC   PO4 7784   9.021   1.097   2.638
  650DOPC   GL1 7785   8.886   0.907   2.968
  650DOPC   GL2 7786   8.675   1.149   2.997
  650DOPC   C1A 7787   9.033   1.047   3.347
  650DOPC   D2A 7788   9.083   1.170   3.827
  650DOPC   C3A 7789   9.063   1.044   4.282
  650DOPC   C4A 7790   9.032   0.837   4.733
  650DOPC   C1B 7791   8.575   1.253   3.410
  650DOPC   D2B 7792   8.580   1.389   3.888
  650DOPC   C3B 7793   8.616   1.281   4.346
  650DOPC   C4B 7794   8.587   1.122   4.820
  651DOPC   NC3 7795  15.447   8.158   2.766
  651DOPC   PO4 7796  15.694   7.850   2.852
  651DOPC   GL1 7797  15.382   7.653   3.153
  651DOPC   GL2 7798  15.361   7.949   3.184
  651DOPC   C1A 7799  15.330   7.607   3.593
  651DOPC   D2A 7800  15.526   7.725   4.032
  651DOPC   C3A 7801  15.551   7.583   4.474
  651DOPC   C4A 7802  15.583   7.493   4.953
  651DOPC   C1B 7803  15.513   8.085   3.589
  651DOPC   D2B 7804  15.639   8.221   4.064
  651DOPC   C3B 7805  15.866   7.990   4.422
  651DOPC   C4B 7806  16.004   7.833   4.883
  652DOPC   NC3 7807   4.247   2.992   2.652
  652DOPC   PO4 7808   4.623   2.923   2.756
  652DOPC   GL1 7809   4.431   2.867   3.114
  652DOPC   GL2 7810   4.254   3.137   3.088
  652DOPC   C1A 7811   4.592   2.725   3.514
  652DOPC   D2A 7812   4.823   2.667   3.966
  652DOPC   C3A 7813   4.591   2.746   4.379
  652DOPC   C4A 7814   4.300   2.846   4.774
  652DOPC   C1B 7815   4.133   3.141   3.506
  652DOPC   D2B 7816   4.173   2.880   3.925
  652DOPC   C3B 7817   4.196   3.103   4.328
  652DOPC   C4B 7818   4.255   3.363   4.739
  653DOPC   NC3 7819   1.887   6.381   2.593
  653DOPC   PO4 7820   1.987   6.681   2.827
  653DOPC   GL1 7821   2.021   6.384   3.103
  653DOPC   GL2 7822   2.309   6.416   3.170
  653DOPC   C1A 7823   1.775   6.354   3.483
  653DOPC   D2A 7824   1.591   6.485   3.939
  653DOPC   C3A 7825   1.781   6.672   4.340
  653DOPC   C4A 7826   1.962   6.869   4.758
  653DOPC   C1B 7827   2.230   6.548   3.581
  653DOPC   D2B 7828   2.160   6.815   3.999
  653DOPC   C3B 7829   2.350   6.753   4.424
  653DOPC   C4B 7830   2.366   6.419   4.789
  654DOPC   NC3 7831   4.653   2.556   2.445
  654DOPC   PO4 7832   4.981   2.525   2.673
  654DOPC   GL1 7833   4.804   2.608   3.060
  654DOPC   GL2 7834   4.927   2.890   3.102
  654DOPC   C1A 7835   5.014   2.433   3.400
  654DOPC   D2A 7836   5.249   2.161   3.739
  654DOPC   C3A 7837   5.298   2.290   4.182
  654DOPC   C4A 7838   5.552   2.378   4.590
  654DOPC   C1B 7839   5.047   2.974   3.535
  654DOPC   D2B 7840   5.117   3.147   4.011
  654DOPC   C3B 7841   5.101   2.995   4.459
  654DOPC   C4B 7842   5.190   2.813   4.913
  655DOPC   NC3 7843  10.544   0.352   2.841
  655DOPC   PO4 7844  10.358   0.016   2.931
  655DOPC   GL1 7845  10.420   9.961   3.362
  655DOPC   GL2 7846  10.528   0.227   3.302
  655DOPC   C1A 7847  10.543   0.090   3.769
  655DOPC   D2A 7848  10.671   0.202   4.224
  655DOPC   C3A 7849  10.534   0.112   4.655
  655DOPC   C4A 7850  10.501   0.012   5.127
  655DOPC   C1B 7851  10.255   0.466   3.552
  655DOPC   D2B 7852  10.212   0.401   4.047
  655DOPC   C3B 7853  10.338   0.543   4.475
  655DOPC   C4B 7854  10.139   0.802   4.833
  656DOPC   NC3 7855   1.319   0.100   2.651
  656DOPC   PO4 7856   1.612   0.317   2.821
  656DOPC   GL1 7857   1.475   0.108   3.135
  656DOPC   GL2 7858   1.174   0.156   3.082
  656DOPC   C1A 7859   1.520   0.206   3.562
  656DOPC   D2A 7860   1.484   0.385   4.026
  656DOPC   C3A 7861   1.467   0.240   4.475
  656DOPC   C4A 7862   1.504   0.041   4.917
  656DOPC   C1B 7863   1.091   0.413   3.427
  656DOPC   D2B 7864   1.018   0.668   3.855
  656DOPC   C3B 7865   1.046   0.508   4.304
  656DOPC   C4B 7866   0.952   0.155   4.647
  657DOPC   NC3 7867   4.202   8.955   2.472
  657DOPC   PO4 7868   4.386   8.662   2.667
  657DOPC   GL1 7869   4.159   8.849   2.971
  657DOPC   GL2 7870   4.313   9.112   2.930
  657DOPC   C1A 7871   4.089   8.723   3.395
  657DOPC   D2A 7872   3.934   8.680   3.880
  657DOPC   C3A 7873   4.117   8.681   4.324
  657DOPC   C4A 7874   4.442   8.769   4.699
  657DOPC   C1B 7875   4.336   9.172   3.364
  657DOPC   D2B 7876   4.285   9.186   3.869
  657DOPC   C3B 7877   4.562   8.944   4.188
  657DOPC   C4B 7878   4.832   8.546   4.363
  658DOPC   NC3 7879  17.877   5.255   2.621
  658DOPC   PO4 7880  17.521   5.154   2.779
  658DOPC   GL1 7881  17.651   5.222   3.191
  658DOPC   GL2 7882  17.910   5.345   3.105
  658DOPC   C1A 7883  17.740   5.052   3.604
  658DOPC   D2A 7884  17.785   4.817   4.055
  658DOPC   C3A 7885  17.774   4.867   4.532
  658DOPC   C4A 7886  17.799   5.014   5.015
  658DOPC   C1B 7887  18.197   5.164   3.402
  658DOPC   D2B 7888  18.366   4.953   3.828
  658DOPC   C3B 7889  18.244   4.931   4.283
  658DOPC   C4B 7890  18.236   4.888   4.767
  659DOPC   NC3 7891   0.213   2.014   2.533
  659DOPC   PO4 7892   0.137   1.655   2.713
  659DOPC   GL1 7893   0.182   1.618   3.155
  659DOPC   GL2 7894   0.071   1.906   3.173
  659DOPC   C1A 7895   0.410   1.562   3.550
  659DOPC   D2A 7896   0.579   1.539   4.029
  659DOPC   C3A 7897   0.590   1.687   4.475
  659DOPC   C4A 7898   0.643   1.795   4.962
  659DOPC   C1B 7899   0.311   2.082   3.531
  659DOPC   D2B 7900   0.549   2.289   3.949
  659DOPC   C3B 7901   0.595   2.282   4.439
  659DOPC   C4B 7902   0.702   2.291   4.934
  660DOPC   NC3 7903  19.425   7.346   2.609
  660DOPC   PO4 7904  19.723   7.576   2.756
  660DOPC   GL1 7905  19.704   7.308   3.021
  660DOPC   GL2 7906  19.814   7.065   2.864
  660DOPC   C1A 7907  19.811   7.426   3.436
  660DOPC   D2A 7908  19.843   7.506   3.929
  660DOPC   C3A 7909  19.486   7.370   4.201
  660DOPC   C4A 7910  19.221   7.406   4.606
  660DOPC   C1B 7911  19.788   6.924   3.280
  660DOPC   D2B 7912  19.760   7.016   3.785
  660DOPC   C3B 7913  19.828   7.012   4.262
  660DOPC   C4B 7914  19.843   7.013   4.758
  661DOPC   NC3 7915  13.091   6.230   2.774
  661DOPC   PO4 7916  13.457   6.079   2.856
  661DOPC   GL1 7917  13.408   5.985   3.266
  661DOPC   GL2 7918  13.163   6.155   3.267
  661DOPC   C1A 7919  13.591   5.906   3.681
  661DOPC   D2A 7920  13.792   5.851   4.142
  661DOPC   C3A 7921  13.569   5.561   4.457
  661DOPC   C4A 7922  13.552   5.346   4.914
  661DOPC   C1B 7923  13.081   5.984   3.652
  661DOPC   D2B 7924  13.253   5.855   4.092
  661DOPC   C3B 7925  13.445   6.066   4.452
  661DOPC   C4B 7926  13.481   6.267   4.882
  662DOPC   NC3 7927   3.383   6.224   2.566
  662DOPC   PO4 7928   3.323   6.566   2.763
  662DOPC   GL1 7929   3.223   6.245   3.037
  662DOPC   GL2 7930   3.512   6.160   3.035
  662DOPC   C1A 7931   3.184   6.368   3.444
  662DOPC   D2A 7932   3.082   6.533   3.912
  662DOPC   C3A 7933   3.310   6.548   4.329
  662DOPC   C4A 7934   3.572   6.483   4.745
  662DOPC   C1B 7935   3.684   6.364   3.397
  662DOPC   D2B 7936   3.847   6.470   3.873
  662DOPC   C3B 7937   3.834   6.654   4.305
  662DOPC   C4B 7938   3.811   6.947   4.698
  663DOPC   NC3 7939   5.797   6.252   2.546
  663DOPC   PO4 7940   5.650   6.193   2.908
  663DOPC   GL1 7941   5.381   6.508   3.065
  663DOPC   GL2 7942   5.571   6.722   2.969
  663DOPC   C1A 7943   5.438   6.473   3.509
  663DOPC   D2A 7944   5.585   6.514   3.977
  663DOPC   C3A 7945   5.546   6.327   4.409
  663DOPC   C4A 7946   5.433   6.119   4.844
  663DOPC   C1B 7947   5.808   6.800   3.343
  663DOPC   D2B 7948   6.037   6.698   3.793
  663DOPC   C3B 7949   6.004   6.623   4.270
  663DOPC   C4B 7950   5.937   6.480   4.752
  664DOPC   NC3 7951  10.316   4.107   2.687
  664DOPC   PO4 7952   9.948   4.060   2.838
  664DOPC   GL1 7953  10.069   4.280   3.132
  664DOPC   GL2 7954  10.359   4.199   3.159
  664DOPC   C1A 7955   9.982   4.389   3.518
  664DOPC   D2A 7956   9.821   4.437   3.988
  664DOPC   C3A 7957   9.965   4.449   4.432
  664DOPC   C4A 7958   9.991   4.402   4.928
  664DOPC   C1B 7959  10.470   4.287   3.595
  664DOPC   D2B 7960  10.345   4.184   4.077
  664DOPC   C3B 7961  10.386   4.145   4.554
  664DOPC   C4B 7962  10.436   4.124   5.049
  665DOPC   NC3 7963   4.918   5.660   2.535
  665DOPC   PO4 7964   4.936   6.023   2.705
  665DOPC   GL1 7965   5.198   6.103   3.028
  665DOPC   GL2 7966   5.341   5.828   2.973
  665DOPC   C1A 7967   5.155   6.034   3.461
  665DOPC   D2A 7968   4.978   5.863   3.894
  665DOPC   C3A 7969   5.065   6.083   4.289
  665DOPC   C4A 7970   5.053   6.440   4.603
  665DOPC   C1B 7971   5.371   5.576   3.337
  665DOPC   D2B 7972   5.392   5.521   3.836
  665DOPC   C3B 7973   5.229   5.563   4.277
  665DOPC   C4B 7974   5.265   5.608   4.776
  666DOPC   NC3 7975   6.491   2.308   2.664
  666DOPC   PO4 7976   6.886   2.322   2.774
  666DOPC   GL1 7977   6.886   2.300   3.227
  666DOPC   GL2 7978   6.597   2.167   3.162
  666DOPC   C1A 7979   6.844   2.137   3.647
  666DOPC   D2A 7980   6.551   2.094   4.050
  666DOPC   C3A 7981   6.694   2.015   4.489
  666DOPC   C4A 7982   6.725   1.829   4.944
  666DOPC   C1B 7983   6.380   1.971   3.522
  666DOPC   D2B 7984   6.414   1.618   3.896
  666DOPC   C3B 7985   6.324   1.705   4.354
  666DOPC   C4B 7986   6.213   1.846   4.823
  667DOPC   NC3 7987  18.810   8.391   2.771
  667DOPC   PO4 7988  18.633   8.028   2.792
  667DOPC   GL1 7989  18.647   8.185   3.187
  667DOPC   GL2 7990  18.948   8.161   3.163
  667DOPC   C1A 7991  18.591   8.150   3.615
  667DOPC   D2A 7992  18.544   7.915   4.041
  667DOPC   C3A 7993  18.664   8.004   4.472
  667DOPC   C4A 7994  18.765   8.119   4.942
  667DOPC   C1B 7995  19.030   7.856   3.465
  667DOPC   D2B 7996  19.354   7.619   3.763
  667DOPC   C3B 7997  19.189   7.791   4.179
  667DOPC   C4B 7998  19.121   7.891   4.659
  668DOPC   NC3 7999  15.950   0.148   2.289
  668DOPC   PO4 8000  16.060   0.366   2.606
  668DOPC   GL1 8001  16.055   0.254   3.030
  668DOPC   GL2 8002  16.192   0.531   3.096
  668DOPC   C1A 8003  15.906   0.234   3.451
  668DOPC   D2A 8004  15.877   0.060   3.923
  668DOPC   C3A 8005  15.797   0.290   4.329
  668DOPC   C4A 8006  15.490   0.229   4.723
  668DOPC   C1B 8007  16.058   0.734   3.498
  668DOPC   D2B 8008  15.818   0.952   3.915
  668DOPC   C3B 8009  15.761   0.812   4.374
  668DOPC   C4B 8010  15.835   0.608   4.836
  669DOPC   NC3 8011   2.232   4.238   2.482
  669DOPC   PO4 8012   2.344   4.007   2.796
  669DOPC   GL1 8013   2.571   4.067   3.116
  669DOPC   GL2 8014   2.830   4.170   3.036
  669DOPC   C1A 8015   2.462   4.210   3.514
  669DOPC   D2A 8016   2.277   4.387   3.956
  669DOPC   C3A 8017   2.394   4.466   4.416
  669DOPC   C4A 8018   2.561   4.479   4.894
  669DOPC   C1B 8019   3.053   4.196   3.436
  669DOPC   D2B 8020   3.269   4.152   3.910
  669DOPC   C3B 8021   3.170   4.292   4.350
  669DOPC   C4B 8022   3.050   4.271   4.834
  670DOPC   NC3 8023  15.114   0.180   2.593
  670DOPC   PO4 8024  15.419   0.021   2.796
  670DOPC   GL1 8025  15.167   9.858   3.115
  670DOPC   GL2 8026  14.907   9.940   2.966
  670DOPC   C1A 8027  15.085   9.732   3.548
  670DOPC   D2A 8028  15.133   9.560   4.025
  670DOPC   C3A 8029  15.056   9.706   4.464
  670DOPC   C4A 8030  14.978   0.123   4.706
  670DOPC   C1B 8031  14.632   9.919   3.322
  670DOPC   D2B 8032  14.513   9.907   3.807
  670DOPC   C3B 8033  14.592   9.690   4.225
  670DOPC   C4B 8034  14.605   9.449   4.661
  671DOPC   NC3 8035   9.244   5.378   2.453
  671DOPC   PO4 8036   9.413   5.152   2.753
  671DOPC   GL1 8037   9.388   5.284   3.195
  671DOPC   GL2 8038   9.595   5.504   3.116
  671DOPC   C1A 8039   9.404   5.439   3.623
  671DOPC   D2A 8040   9.395   5.619   4.093
  671DOPC   C3A 8041   9.388   5.580   4.558
  671DOPC   C4A 8042   9.398   5.489   5.043
  671DOPC   C1B 8043   9.730   5.788   3.465
  671DOPC   D2B 8044   9.760   5.962   3.947
  671DOPC   C3B 8045   9.755   5.969   4.429
  671DOPC   C4B 8046   9.836   6.228   4.854
  672PF10C   C1 8047  14.495   5.293   2.907
  672PF10C   F2 8048  14.658   5.265   3.074
  672PF10C   F3 8049  14.575   5.411   3.216
  672PF10C   F4 8050  14.753   5.425   3.362
  672PF10C   F5 8051  14.635   5.427   3.548
  672PF10C   F6 8052  14.770   5.576   3.660
  672PF10C   F7 8053  14.608   5.691   3.754
  672PF10C   F8 8054  14.710   5.716   3.958
  672PF10C   F9 8055  14.650   5.925   3.989
  672PF10C  F10 8056  14.732   5.944   4.203
  673PF10C   C1 8057  12.849   5.935   3.043
  673PF10C   F2 8058  13.039   5.799   3.057
  673PF10C   F3 8059  13.040   5.782   3.276
  673PF10C   F4 8060  13.166   5.591   3.299
  673PF10C   F5 8061  13.293   5.664   3.463
  673PF10C   F6 8062  13.291   5.467   3.583
  673PF10C   F7 8063  13.293   5.561   3.782
  673PF10C   F8 8064  13.430   5.403   3.877
  673PF10C   F9 8065  13.550   5.544   3.995
  673PF10C  F10 8066  13.717   5.394   4.045
  674PF10C   C1 8067  12.885   8.242   2.809
  674PF10C   F2 8068  12.859   8.374   3.001
  674PF10C   F3 8069  13.038   8.300   3.103
  674PF10C   F4 8070  13.075   8.477   3.245
  674PF10C   F5 8071  13.142   8.360   3.418
  674PF10C   F6 8072  13.038   8.492   3.575
  674PF10C   F7 8073  13.210   8.503   3.711
  674PF10C   F8 8074  13.190   8.726   3.761
  674PF10C   F9 8075  13.243   8.707   3.974
  674PF10C  F10 8076  13.273   8.932   4.013
  675W        W 8077   0.170   8.326   8.205
  676W        W 8078  15.487   3.648   9.118
  677W        W 8079   7.995   2.234   9.839
  678W        W 8080   7.135   2.653   8.673
  679W        W 8081  13.351   3.007   8.512
  680W        W 8082  18.439   8.139   1.188
  681W        W 8083   8.469   4.967   9.568
  682W        W 8084  15.415   7.056   9.234
  683W        W 8085   6.902   5.315   2.498
  684W        W 8086   6.887   3.489   0.594
  685W        W 8087  15.289   7.931   9.613
  686W        W 8088   6.161   4.952   1.456
  687W        W 8089   7.484   4.616   0.234
  688W        W 8090   4.731   7.572   9.242
  689W        W 8091  11.673   2.934   9.748
  690W        W 8092   7.140   9.346   8.754
  691W        W 8093   7.984   4.531   2.129
  692W        W 8094  18.932   2.224   0.159
  693W        W 8095  12.075   9.186   2.108
  694W        W 8096   0.678   6.434   1.248
  695W        W 8097   1.626   5.758   9.906
  696W        W 8098  18.949   1.235   9.200
  697W        W 8099   5.298   1.495   0.338
  698W        W 8100   5.418   7.924   8.205
  699W        W 8101   7.635   2.711   1.765
  700W        W 8102   3.248   3.046   1.076
  701W        W 8103   1.227   8.364   9.458
  702W        W 8104  12.107   8.832   1.163
  703W        W 8105  18.256   2.759   1.567
  704W        W 8106  16.777   5.023   0.190
  705W        W 8107  10.477   0.637   1.767
  706W        W 8108   4.402   0.568   1.077
  707W        W 8109   0.247   5.014   9.821
  708W        W 8110   0.674   5.382   2.626
  709W        W 8111   9.713   0.100   1.846
  710W        W 8112   6.843   7.854   1.345
  711W        W 8113  15.585   1.263   8.490
  712W        W 8114  16.277   1.777   9.176
  713W        W 8115   9.049   3.426   0.524
  714W        W 8116   1.468   0.522   2.387
  715W        W 8117  16.809   9.756   9.040
  716W        W 8118  18.113   0.107   0.213
  717W        W 8119  19.456   4.361   7.490
  718W        W 8120   0.977   1.456   1.637
  719W        W 8121  16.911   4.287   0.884
  720W        W 8122   5.734   9.989   9.422
  721W        W 8123  10.920   7.075   1.765
  722W        W 8124  13.611   2.075   9.999
  723W        W 8125  18.127   5.850   1.351
  724W        W 8126  14.618   6.985   1.293
  725W        W 8127  14.296   3.542   7.773
  726W        W 8128  17.383   5.389   8.667
  727W        W 8129  19.902   1.165   1.686
  728W        W 8130  14.852   7.849   9.344
  729W        W 8131   5.463   7.565   0.272
  730W        W 8132  11.321   2.506   1.634
  731W        W 8133  17.460   2.917   8.065
  732W        W 8134   2.238   4.778   9.484
  733W        W 8135   6.756   8.311   7.368
  734W        W 8136   9.071   0.476   7.717
  735W        W 8137   4.831   2.098   8.945
  736W        W 8138  18.212   0.868   1.904
  737W        W 8139  10.538   9.721   8.349
  738W        W 8140  16.687   6.960   8.814
  739W        W 8141   4.062   3.070   0.635
  740W        W 8142  19.417   3.795   7.575
  741W        W 8143   5.504   5.625   1.348
  742W        W 8144  11.960   7.433   1.546
  743W        W 8145   9.214   5.362   8.739
  744W        W 8146   0.596   0.024   9.104
  745W        W 8147  17.382   3.404   9.939
  746W        W 8148  15.252   0.309   1.577
  747W        W 8149  10.972   2.543   9.059
  748W        W 8150  15.445   0.304   7.729
  749W        W 8151   8.916   5.759   0.361
  750W        W 8152  19.447   0.207   2.015
  751W        W 8153  13.032   1.185   9.085
  752W        W 8154   2.674   5.394   1.186
  753W        W 8155   1.889   7.742   9.497
  754W        W 8156   2.492   4.949   1.947
  755W        W 8157  11.385   1.033   9.658
  756W        W 8158  12.785   5.900   8.396
  757W        W 8159  11.323   6.423   9.684
  758W        W 8160  11.484   4.322   1.325
  759W        W 8161   0.754   4.540   1.278
  760W        W 8162  15.810   5.898   8.807
  761W        W 8163  19.008   4.744   0.642
  762W        W 8164  12.196   4.675   0.546
  763W        W 8165   4.776   1.169   2.391
  764W        W 8166   3.945   7.598   2.068
  765W        W 8167  11.839   3.794   0.679
  766W        W 8168  11.594   3.075   8.428
  767W        W 8169   3.773   4.143   0.683
  768W        W 8170   8.418   1.306   9.722
  769W        W 8171  11.049   6.451   0.126
  770W        W 8172  19.196   6.775   2.194
  771W        W 8173  16.927   9.086   1.596
  772W        W 8174  11.738   6.505   1.533
  773W        W 8175   4.566   3.061   0.785
  774W        W 8176  14.593   2.748   9.258
  775W        W 8177  16.265   4.060   8.546
  776W        W 8178   3.250   9.486   8.911
  777W        W 8179   0.462   6.020   0.451
  778W        W 8180   6.019   2.980   9.159
  779W        W 8181   0.174   8.362   7.698
  780W        W 8182  17.710   6.362   0.461
  781W        W 8183  11.727   3.371   0.961
  782W        W 8184  13.820   2.827   1.110
  783W        W 8185   2.374   7.951   9.809
  784W        W 8186   6.473   3.609   1.961
  785W        W 8187  11.367   1.127   8.772
  786W        W 8188  14.167   0.994   7.642
  787W        W 8189   7.444   0.439   2.396
  788W        W 8190  10.968   1.547   0.514
  789W        W 8191   3.989   6.367   0.262
  790W        W 8192   5.249   6.977   1.180
  791W        W 8193   0.663   0.211   0.045
  792W        W 8194  11.066   0.737   8.947
  793W        W 8195  10.705   6.253   8.392
  794W        W 8196  16.458   6.257   0.388
  795W        W 8197  19.243   2.744   9.774
  796W        W 8198  15.634   4.203   8.093
  797W        W 8199  14.140   7.528   2.281
  798W        W 8200  10.168   8.773   8.943
  799W        W 8201  14.624   8.625   9.454
  800W        W 8202  14.693   9.432   7.524
  801W        W 8203   8.171   9.609   9.157
  802W        W 8204   0.755   3.678   1.360
  803W        W 8205  13.574   3.047   1.568
  804W        W 8206   6.969   6.238   0.017
  805W        W 8207  12.240   5.643   2.350
  806W        W 8208  13.304   7.965   2.037
  807W        W 8209   5.213   3.215   0.443
  808W        W 8210  12.117   6.045   8.933
  809W        W 8211  10.814   7.530   0.185
  810W        W 8212   5.082   8.982   1.915
  811W        W 8213   8.987   5.462   1.596
  812W        W 8214   7.160   7.953   8.470
  813W        W 8215   3.375   8.734   0.837
  814W        W 8216   5.729   5.122   9.101
  815W        W 8217   1.368   3.035   9.832
  816W        W 8218   7.490   4.496   8.620
  817W        W 8219  12.615   9.100   0.473
  818W        W 8220   7.957   1.578   1.540
  819W        W 8221  13.069   3.464   9.402
  820W        W 8222   5.566   3.173   2.736
  821W        W 8223   4.733   6.348   0.762
  822W        W 8224  10.537   9.654   0.538
  823W        W 8225   9.213   9.310   1.819
  824W        W 8226  19.750   1.596   8.995
  825W        W 8227   7.068   1.596   1.692
  826W        W 8228  15.759   1.558   1.336
  827W        W 8229  13.362   8.639   0.388
  828W        W 8230   3.136   2.728   0.639
  829W        W 8231  14.014   7.453   1.770
  830W        W 8232   2.820   0.352   0.253
  831W        W 8233  13.581   1.433   8.831
  832W        W 8234  10.053   0.521   2.111
  833W        W 8235   7.940   7.372   2.217
  834W        W 8236   0.402   0.348   8.265
  835W        W 8237   2.944   6.895   0.516
  836W        W 8238   2.192   3.616   1.904
  837W        W 8239   7.510   1.407   9.445
  838W        W 8240   8.142   8.289   1.335
  839W        W 8241   6.387   4.030   8.975
  840W        W 8242  19.508   2.017   8.512
  841W        W 8243   2.605   8.942   1.273
  842W        W 8244  11.283   3.837   9.728
  843W        W 8245  14.795   4.099   9.393
  844W        W 8246   5.963   9.378   0.187
  845W        W 8247   5.926   6.529   7.691
  846W        W 8248  13.061   2.007   7.814
  847W        W 8249  15.183   1.564   0.656
  848W        W 8250   6.647   0.455   7.881
  849W        W 8251  16.878   4.338   9.867
  850W        W 8252   1.290   1.671   8.619
  851W        W 8253  18.705   8.999   7.733
  852W        W 8254  19.900   7.412   1.891
  853W        W 8255   7.182   2.085   1.802
  854W        W 8256  12.745   0.527   2.081
  855W        W 8257   9.904   8.238   0.633
  856W        W 8258  15.279   7.655   8.663
  857W        W 8259  10.720   7.907   8.042
  858W        W 8260  12.081   9.270   8.910
  859W        W 8261   6.058   0.282   1.959
  860W        W 8262   3.643   4.380   1.120
  861W        W 8263   0.203   4.453   1.195
  862W        W 8264  10.222   7.882   7.961
  863W        W 8265   6.785   1.753   8.091
  864W        W 8266  17.443   8.969   0.777
  865W        W 8267  18.423   8.770   8.855
  866W        W 8268   8.544   1.233   2.570
  867W        W 8269   3.637   8.442   9.143
  868W        W 8270  13.572   3.733   1.067
  869W        W 8271   8.979   2.176   7.970
  870W        W 8272  13.585   5.593   1.296
  871W        W 8273   0.003   3.319   2.405
  872W        W 8274   6.589   1.451   1.493
  873W        W 8275  12.416   4.249   7.479
  874W        W 8276   4.381   2.343   8.953
  875W        W 8277   3.458   0.190   9.492
  876W        W 8278   5.658   5.369   7.574
  877W        W 8279   7.370   4.269   1.014
  878W        W 8280  11.562   6.925   1.264
  879W        W 8281  11.066   4.544   8.581
  880W        W 8282  10.328   1.154   7.833
  881W        W 8283  19.409   0.274   8.058
  882W        W 8284  13.418   8.809   8.470
  883W        W 8285   3.380   9.985   9.025
  884W        W 8286  19.873   1.892   1.309
  885W        W 8287  15.106   0.319   2.090
  886W        W 8288   8.663   3.262   2.607
  887W        W 8289   4.069   7.752   0.936
  888W        W 8290  10.853   2.981   2.483
  889W        W 8291  19.796   7.468   1.345
  890W        W 8292  15.916   2.778   1.064
  891W        W 8293   3.354   0.829   2.717
  892W        W 8294  11.885   6.976   2.287
  893W        W 8295  10.779   6.087   9.285
  894W        W 8296   3.049   3.993   1.118
  895W        W 8297   0.071   7.575   0.779
  896W        W 8298  17.839   8.166   0.280
  897W        W 8299  13.239   0.681   2.115
  898W        W 8300  11.613   2.345   2.621
  899W        W 8301   3.048   3.709   9.055
  900W        W 8302   5.724   1.191   0.327
  901W        W 8303  16.403   9.934   9.700
  902W        W 8304  14.529   3.648   9.294
  903W        W 8305   7.129   2.125   1.280
  904W        W 8306  13.313   0.254   1.852
  905W        W 8307  18.302   1.123   2.349
  906W        W 8308  12.836   4.190   1.595
  907W        W 8309   8.162   0.906   9.417
  908W        W 8310  17.906   8.159   9.268
  909W        W 8311  16.438   3.368   9.913
  910W        W 8312   9.387   4.454   2.371
  911W        W 8313   5.559   1.375   7.939
  912W        W 8314  15.102   9.268   7.799
  913W        W 8315   9.893   6.790   1.514
  914W        W 8316   7.178   9.877   1.264
  915W        W 8317  18.670   1.138   2.000
  916W        W 8318   4.300   6.508   9.831
  917W        W 8319  19.498   4.011   0.844
  918W        W 8320   1.970   6.755   0.230
  919W        W 8321  15.376   2.752   9.508
  920W        W 8322   3.050   5.751   1.104
  921W        W 8323  19.932   5.834   2.192
  922W        W 8324   8.489   5.601   1.725
  923W        W 8325  11.885   2.544   9.498
  924W        W 8326   1.557   2.582   0.761
  925W        W 8327  13.945   9.347   9.142
  926W        W 8328  17.854   2.412   8.381
  927W        W 8329  15.705   4.958   9.101
  928W        W 8330   0.663   7.026   1.761
  929W        W 8331   5.416   5.886   2.533
  930W        W 8332  10.057   6.895   8.757
  931W        W 8333   7.351   1.021   7.837
  932W        W 8334   6.444   8.000   0.731
  933W        W 8335   9.237   6.131   0.243
  934W        W 8336  11.699   0.148   9.121
  935W        W 8337   8.977   6.960   9.911
  936W        W 8338  13.947   2.099   8.370
  937W        W 8339   7.509   5.897   9.259
  938W        W 8340   6.256   0.762   1.940
  939W        W 8341   7.609   5.913   0.284
  940W        W 8342   4.318   9.984   2.512
  941W        W 8343   7.147   5.306   7.655
  942W        W 8344  12.325   2.325   9.743
  943W        W 8345   7.632   6.159   7.531
  944W        W 8346   1.100   3.706   0.247
  945W        W 8347   1.864   6.418   1.609
  946W        W 8348   8.981   9.841   9.491
  947W        W 8349   9.063   6.042   8.393
  948W        W 8350   6.468   0.399   1.622
  949W        W 8351   3.776   9.840   8.724
  950W        W 8352  14.334   5.051   9.476
  951W        W 8353   7.181   1.089   9.679
  952W        W 8354   8.946   1.710   0.553
  953W        W 8355  15.268   4.985   9.435
  954W        W 8356   2.244   8.662   9.369
  955W        W 8357   1.405   8.713   7.702
  956W        W 8358  16.872   3.200   2.491
  957W        W 8359  17.052   3.961   1.917
  958W        W 8360  13.923   7.567   7.956
  959W        W 8361  10.573   7.741   9.749
  960W        W 8362  11.336   4.196   2.604
  961W        W 8363  13.167   2.828   8.057
  962W        W 8364   6.402   9.108   8.402
  963W        W 8365   4.994   4.713   8.736
  964W        W 8366  13.868   4.839   9.417
  965W        W 8367   9.760   6.654   8.339
  966W        W 8368   6.384   2.517   8.273
  967W        W 8369  14.872   8.804   8.498
  968W        W 8370   4.097   6.056   8.049
  969W        W 8371  15.058   7.151   0.137
  970W        W 8372   2.664   4.583   0.714
  971W        W 8373  16.763   6.046   8.736
  972W        W 8374   2.245   7.765   8.472
  973W        W 8375   9.509   2.733   8.510
  974W        W 8376   4.695   6.394   1.608
  975W        W 8377   7.673   1.556   0.384
  976W        W 8378  18.845   6.418   9.221
  977W        W 8379  19.386   1.213   0.956
  978W        W 8380   4.529   1.730   1.638
  979W        W 8381   5.606   2.879   9.442
  980W        W 8382   0.816   8.031   0.605
  981W        W 8383  13.586   5.874   7.979
  982W        W 8384   1.665   6.000   8.487
  983W        W 8385   1.664   1.228   1.299
  984W        W 8386  17.769   4.348   2.250
  985W        W 8387  14.311   2.217   0.646
  986W        W 8388  13.021   1.354   2.112
  987W        W 8389  12.231   8.305   8.416
  988W        W 8390  12.442   3.817   1.727
  989W        W 8391   8.944   3.086   8.010
  990W        W 8392   3.401   8.493   8.699
  991W        W 8393   7.061   4.666   8.858
  992W        W 8394   8.608   0.349   8.857
  993W        W 8395  12.896   6.211   1.137
  994W        W 8396  11.147   6.262   2.356
  995W        W 8397   8.839   6.986   8.411
  996W        W 8398   7.985   9.181   0.232
  997W        W 8399   7.664   1.766   7.719
  998W        W 8400   3.895   6.897   1.539
  999W        W 8401   7.539   3.434   8.234
 1000W        W 8402  12.922   7.737   8.140
 1001W        W 8403   1.775   2.601   7.481
 1002W        W 8404   2.525   9.908   0.178
 1003W        W 8405   3.579   6.855   1.963
 1004W        W 8406  13.353   8.807   8.971
 1005W        W 8407   4.013   2.113   8.427
 1006W        W 8408  11.607   4.914   2.533
 1007W        W 8409  17.514   9.709   1.234
 1008W        W 8410  16.374   0.848   0.259
 1009W        W 8411   3.877   5.649   8.237
 1010W        W 8412   8.806   6.527   8.657
 1011W        W 8413  16.510   2.738   9.233
 1012W        W 8414   9.692   9.259   8.991
 1013W        W 8415  15.390   3.758   8.631
 1014W        W 8416  12.042   9.520   1.685
 1015W        W 8417   0.647   2.741   2.624
 1016W        W 8418   7.908   6.100   7.978
 1017W        W 8419  19.374   7.188   1.214
 1018W        W 8420   9.007   9.776   8.950
 1019W        W 8421  18.966   3.187   1.576
 1020W        W 8422   1.048   2.613   0.796
 1021W        W 8423  18.885   1.970   7.802
 1022W        W 8424   6.488   6.561   0.084
 1023W        W 8425   2.676   9.991   8.381
 1024W        W 8426  16.779   5.578   7.529
 1025W        W 8427  14.396   7.742   0.569
 1026W        W 8428   4.702   9.539   0.035
 1027W        W 8429  11.779   0.015   9.617
 1028W        W 8430  12.432   0.637   7.635
 1029W        W 8431  11.661   9.214   1.447
 1030W        W 8432  16.309   5.651   0.528
 1031W        W 8433  14.036   2.294   1.163
 1032W        W 8434   0.988   6.239   9.419
 1033W        W 8435  12.277   6.914   1.951
 1034W        W 8436  17.090   3.144   7.783
 1035W        W 8437  18.783   9.733   0.484
 1036W        W 8438  11.972   0.749   9.788
 1037W        W 8439  15.338   2.248   9.508
 1038W        W 8440   3.666   1.306   0.047
 1039W        W 8441  18.762   5.480   0.368
 1040W        W 8442   1.793   0.073   1.769
 1041W        W 8443   6.432   2.193   8.902
 1042W        W 8444   6.956   0.671   2.058
 1043W        W 8445  13.909   4.215   0.962
 1044W        W 8446  13.344   1.551   7.838
 1045W        W 8447  18.007   6.385   8.257
 1046W        W 8448  14.533   6.951   8.989
 1047W        W 8449  10.232   4.107   8.783
 1048W        W 8450  19.596   9.670   0.226
 1049W        W 8451  19.394   7.411   7.531
 1050W        W 8452  11.566   5.584   0.154
 1051W        W 8453   8.832   6.539   8.150
 1052W        W 8454  15.303   3.073   7.240
 1053W        W 8455   2.193   0.894   9.216
 1054W        W 8456  15.949   7.756   9.662
 1055W        W 8457   7.354   0.343   9.218
 1056W        W 8458  15.115   4.574   1.301
 1057W        W 8459  18.343   3.619   0.025
 1058W        W 8460  19.973   7.514   8.775
 1059W        W 8461  17.272   1.246   1.220
 1060W        W 8462  10.994   6.470   1.035
 1061W        W 8463  17.395   0.297   8.914
 1062W        W 8464   0.265   3.176   0.646
 1063W        W 8465  13.574   3.737   2.285
 1064W        W 8466   3.250   5.309   1.813
 1065W        W 8467  14.265   2.701   2.326
 1066W        W 8468   5.953   6.871   8.444
 1067W        W 8469  15.545   7.910   0.988
 1068W        W 8470  15.942   0.653   2.182
 1069W        W 8471  18.326   1.345   0.999
 1070W        W 8472  13.241   1.883   1.510
 1071W        W 8473   4.040   5.450   9.362
 1072W        W 8474   2.902   2.573   9.368
 1073W        W 8475  12.071   5.168   0.745
 1074W        W 8476   7.993   8.336   0.273
 1075W        W 8477  12.937   6.841   9.259
 1076W        W 8478   3.315   2.319   8.993
 1077W        W 8479  19.869   1.239   0.745
 1078W        W 8480   2.088   2.653   0.757
 1079W        W 8481  12.013   3.053   0.177
 1080W        W 8482   2.187   9.520   9.536
 1081W        W 8483   6.923   3.543   2.266
 1082W        W 8484  19.972   4.161   0.671
 1083W        W 8485   1.501   9.229   7.722
 1084W        W 8486   4.344   3.537   8.338
 1085W        W 8487   1.434   4.080   1.337
 1086W        W 8488  17.375   7.162   7.994
 1087W        W 8489   9.593   5.735   1.111
 1088W        W 8490  18.154   7.704   0.293
 1089W        W 8491  18.447   3.903   8.744
 1090W        W 8492   4.232   1.733   2.506
 1091W        W 8493   8.514   1.375   7.545
 1092W        W 8494  14.656   0.613   9.757
 1093W        W 8495  19.868   1.106   8.711
 1094W        W 8496   7.379   8.724   1.209
 1095W        W 8497  12.817   9.811   9.285
 1096W        W 8498  14.646   4.093   8.099
 1097W        W 8499   9.494   5.699   7.826
 1098W        W 8500   2.498   7.635   0.210
 1099W        W 8501   8.901   8.387   9.679
 1100W        W 8502  13.869   0.578   8.382
 1101W        W 8503   9.237   7.844   7.925
 1102W        W 8504   2.454   9.316   0.918
 1103W        W 8505   9.816   7.597   1.009
 1104W        W 8506  11.232   9.135   0.748
 1105W        W 8507  17.851   4.540   8.228
 1106W        W 8508  13.667   6.131   1.592
 1107W        W 8509  15.922   9.742   9.652
 1108W        W 8510  19.517   6.436   8.855
 1109W        W 8511   9.184   8.683   2.113
 1110W        W 8512   3.717   3.109   0.257
 1111W        W 8513  17.802   0.604   2.072
 1112W        W 8514  14.686   4.532   7.849
 1113W        W 8515  16.934   7.683   9.286
 1114W        W 8516   5.875   4.654   9.282
 1115W        W 8517   7.956   0.399   8.439
 1116W        W 8518   5.243   4.121   0.349
 1117W        W 8519   2.655   0.201   1.502
 1118W        W 8520  10.297   1.149   8.839
 1119W        W 8521   4.336   0.186   9.293
 1120W        W 8522  18.666   0.635   7.488
 1121W        W 8523   2.105   3.998   0.243
 1122W        W 8524   2.300   3.994   1.581
 1123W        W 8525   6.631   3.859   9.803
 1124W        W 8526   2.141   2.123   1.189
 1125W        W 8527  17.804   4.549   0.877
 1126W        W 8528  18.300   8.885   8.009
 1127W        W 8529   3.191   8.155   1.095
 1128W        W 8530   4.114   8.689   0.144
 1129W        W 8531  13.099   7.669   2.412
 1130W        W 8532  18.152   8.134   8.511
 1131W        W 8533   1.725   6.491   0.616
 1132W        W 8534  11.886   5.171   1.227
 1133W        W 8535  10.011   0.737   8.508
 1134W        W 8536  18.811   6.955   8.489
 1135W        W 8537   6.241   6.719   9.595
 1136W        W 8538   4.966   2.775   0.174
 1137W        W 8539   7.732   0.837   8.241
 1138W        W 8540   1.245   3.703   2.206
 1139W        W 8541   6.216   1.175   2.319
 1140W        W 8542   9.770   7.058   9.160
 1141W        W 8543  17.190   2.820   2.315
 1142W        W 8544  11.851   2.623   8.447
 1143W        W 8545   5.281   3.006   1.944
 1144W        W 8546  14.380   9.698   7.961
 1145W        W 8547   6.643   7.628   7.547
 1146W        W 8548  12.481   0.785   1.594
 1147W        W 8549  17.144   9.911   1.929
 1148W        W 8550   8.429   7.352   7.857
 1149W        W 8551  19.341   8.213   0.290
 1150W        W 8552   8.175   7.874   1.021
 1151W        W 8553   4.901   5.917   1.664
 1152W        W 8554   7.257   1.785   9.686
 1153W        W 8555  19.610   8.432   0.752
 1154W        W 8556  17.935   9.216   2.002
 1155W        W 8557   5.959   5.971   8.460
 1156W        W 8558  16.120   3.633   1.230
 1157W        W 8559  12.827   1.514   7.894
 1158W        W 8560   5.795   7.499   8.113
 1159W        W 8561  16.805   3.384   8.222
 1160W        W 8562  11.527   0.732   1.648
 1161W        W 8563  14.747   3.207   7.980
 1162W        W 8564  10.063   9.840   8.417
 1163W        W 8565  16.401   4.707   0.349
 1164W        W 8566   9.712   5.761   1.964
 1165W        W 8567   8.400   6.992   7.112
 1166W        W 8568  13.516   1.587   0.698
 1167W        W 8569   5.670   4.370   7.873
 1168W        W 8570  19.886   7.060   1.068
 1169W        W 8571  11.767   4.962   0.377
 1170W        W 8572  14.542   7.073   0.328
 1171W        W 8573  16.594   7.425   0.797
 1172W        W 8574  15.618   9.883   1.718
 1173W        W 8575   6.935   2.797   9.165
 1174W        W 8576   8.602   7.601   1.013
 1175W        W 8577  16.885   6.964   7.901
 1176W        W 8578   3.012   2.772   7.772
 1177W        W 8579   6.723   9.766   0.353
 1178W        W 8580   0.177   5.356   1.059
 1179W        W 8581  12.747   0.401   0.034
 1180W        W 8582   8.291   3.998   0.120
 1181W        W 8583  18.459   7.638   1.068
 1182W        W 8584   2.200   7.457   0.810
 1183W        W 8585   3.846   8.681   0.585
 1184W        W 8586   6.731   5.792   8.828
 1185W        W 8587  13.970   6.161   2.026
 1186W        W 8588  13.382   8.855   7.958
 1187W        W 8589   3.760   6.050   1.289
 1188W        W 8590   3.835   7.104   9.283
 1189W        W 8591   8.098   2.999   1.773
 1190W        W 8592  12.124   3.267   7.776
 1191W        W 8593   9.678   0.648   8.884
 1192W        W 8594   5.449   7.012   8.328
 1193W        W 8595   0.285   6.647   9.214
 1194W        W 8596  11.586   2.155   9.334
 1195W        W 8597  18.122   2.997   9.819
 1196W        W 8598   4.315   5.594   9.831
 1197W        W 8599  13.509   6.801   2.289
 1198W        W 8600  18.239   4.196   2.392
 1199W        W 8601  19.688   6.290   9.800
 1200W        W 8602  10.650   6.688   8.013
 1201W        W 8603   7.489   2.836   0.260
 1202W        W 8604   7.174   9.468   1.607
 1203W        W 8605  11.107   0.611   9.793
 1204W        W 8606   6.380   2.312   2.132
 1205W        W 8607  12.697   1.929   8.882
 1206W        W 8608  11.781   3.785   9.774
 1207W        W 8609  14.232   8.771   1.574
 1208W        W 8610  19.404   4.230   8.443
 1209W        W 8611   9.542   7.539   9.214
 1210W        W 8612   5.719   4.075   1.680
 1211W        W 8613  10.005   6.858   9.728
 1212W        W 8614  19.339   2.401   9.370
 1213W        W 8615  10.837   1.012   9.636
 1214W        W 8616   9.685   1.929   9.483
 1215W        W 8617   8.519   9.941   0.808
 1216W        W 8618   8.467   4.596   1.386
 1217W        W 8619   3.248   1.792   0.731
 1218W        W 8620   9.441   9.264   9.966
 1219W        W 8621  16.674   5.904   9.633
 1220W        W 8622  12.326   1.692   1.157
 1221W        W 8623   5.486   5.440   9.451
 1222W        W 8624  13.183   9.116   0.385
 1223W        W 8625   6.684   6.873   8.246
 1224W        W 8626  13.129   1.360   1.586
 1225W        W 8627  16.266   9.437   9.874
 1226W        W 8628   7.403   5.360   8.136
 1227W        W 8629  10.240   4.246   0.069
 1228W        W 8630   9.917   1.229   0.832
 1229W        W 8631   2.325   9.964   9.722
 1230W        W 8632  19.450   8.726   9.851
 1231W        W 8633   9.037   7.274   1.686
 1232W        W 8634  19.921   9.751   9.819
 1233W        W 8635  11.953   2.568   0.006
 1234W        W 8636  13.778   3.710   7.749
 1235W        W 8637  10.138   8.016   1.083
 1236W        W 8638   6.637   1.836   7.601
 1237W        W 8639   4.105   9.205   8.771
 1238W        W 8640   9.762   6.890   2.443
 1239W        W 8641   4.498   1.808   0.172
 1240W        W 8642   1.081   9.740   8.497
 1241W        W 8643  14.745   6.742   1.726
 1242W        W 8644  14.076   2.975   9.120
 1243W        W 8645  14.092   5.805   7.856
 1244W        W 8646  10.418   8.357   8.051
 1245W        W 8647  11.620   6.896   8.839
 1246W        W 8648   6.763   0.681   1.317
 1247W        W 8649  12.287   3.739   9.766
 1248W        W 8650   9.004   5.671   8.036
 1249W        W 8651  13.348   8.176   9.823
 1250W        W 8652   0.698   8.870   1.615
 1251W        W 8653  18.775   3.491   8.840
 1252W        W 8654  10.810   5.137   0.189
 1253W        W 8655   0.195   3.678   7.833
 1254W        W 8656  13.958   8.833   8.422
 1255W        W 8657   4.319   7.770   0.482
 1256W        W 8658  11.415   4.732   9.594
 1257W        W 8659  19.358   7.931   0.713
 1258W        W 8660   9.186   2.589   8.879
 1259W        W 8661  12.410   5.915   8.039
 1260W        W 8662  19.641   2.688   0.105
 1261W        W 8663   9.722   3.932   9.410
 1262W        W 8664   8.034   8.357   9.211
 1263W        W 8665  18.852   3.116   8.011
 1264W        W 8666   3.636   4.894   8.258
 1265W        W 8667   3.109   9.025   2.532
 1266W        W 8668  19.770   0.684   1.760
 1267W        W 8669  11.013   6.060   1.885
 1268W        W 8670   6.260   8.142   8.745
 1269W        W 8671  10.943   1.490   8.395
 1270W        W 8672  19.425   9.146   0.133
 1271W        W 8673   0.970   8.346   9.939
 1272W        W 8674  17.222   5.348   7.678
 1273W        W 8675   8.605   8.072   1.237
 1274W        W 8676   0.224   1.085   0.367
 1275W        W 8677   9.285   0.884   2.268
 1276W        W 8678  14.724   8.085   0.365
 1277W        W 8679   9.489   7.935   0.750
 1278W        W 8680   8.891   8.323   8.643
 1279W        W 8681   0.853   4.224   8.102
 1280W        W 8682   6.147   6.086   0.325
 1281W        W 8683   8.570   8.501   1.529
 1282W        W 8684  12.017   9.442   1.151
 1283W        W 8685  19.861   8.233   2.309
 1284W        W 8686   0.772   0.139   8.564
 1285W        W 8687  18.542   6.847   1.289
 1286W        W 8688  12.345   6.001   0.305
 1287W        W 8689  13.194   8.458   1.591
 1288W        W 8690  13.905   8.310   1.537
 1289W        W 8691  17.335   4.504   0.654
 1290W        W 8692  12.814   3.872   0.633
 1291W        W 8693  17.436   7.951   9.282
 1292W        W 8694  16.715   0.454   0.376
 1293W        W 8695  13.310   9.950   9.319
 1294W        W 8696  13.427   1.835   9.142
 1295W        W 8697   2.900   8.440   1.496
 1296W        W 8698   8.043   7.912   9.466
 1297W        W 8699  12.838   3.717   1.418
 1298W        W 8700   2.097   0.816   9.709
 1299W        W 8701  15.790   3.706   0.395
 1300W        W 8702  14.687   7.341   9.317
 1301W        W 8703   9.580   7.862   8.812
 1302W        W 8704   0.199   6.239   7.809
 1303W        W 8705  15.824   0.793   8.407
 1304W        W 8706  19.220   0.987   0.493
 1305W        W 8707   9.929   8.719   1.904
 1306W        W 8708   9.796   4.070   8.450
 1307W        W 8709   8.241   1.505   1.078
 1308W        W 8710  19.329   0.566   9.732
 1309W        W 8711  18.895   4.939   2.173
 1310W        W 8712   7.124   7.483   8.214
 1311W        W 8713   9.401   0.657   0.288
 1312W        W 8714   6.111   2.633   7.829
 1313W        W 8715  13.908   3.164   7.759
 1314W        W 8716   3.750   0.855   8.168
 1315W        W 8717   8.559   1.249   8.424
 1316W        W 8718   6.913   3.755   1.769
 1317W        W 8719   7.132   2.215   0.777
 1318W        W 8720  12.947   4.757   8.835
 1319W        W 8721  19.032   1.990   8.658
 1320W        W 8722  19.898   6.554   1.628
 1321W        W 8723   9.378   4.241   9.703
 1322W        W 8724   4.204   6.988   1.141
 1323W        W 8725  14.970   2.476   8.184
 1324W        W 8726  16.719   7.855   8.856
 1325W        W 8727  11.806   6.065   1.237
 1326W        W 8728  13.133   5.442   0.015
 1327W        W 8729  12.624   7.748   9.998
 1328W        W 8730   6.004   0.358   1.437
 1329W        W 8731  11.966   0.694   7.821
 1330W        W 8732  10.395   4.535   8.024
 1331W        W 8733   2.175   5.573   1.137
 1332W        W 8734  18.307   7.228   7.968
 1333W        W 8735   7.523   6.517   1.463
 1334W        W 8736   1.241   3.637   1.518
 1335W        W 8737   4.862   8.227   0.240
 1336W        W 8738   8.048   5.157   9.325
 1337W        W 8739   5.983   5.559   8.163
 1338W        W 8740  19.287   0.133   9.489
 1339W        W 8741  16.114   8.506   7.920
 1340W        W 8742  10.345   7.938   9.312
 1341W        W 8743  19.759   2.505   9.635
 1342W        W 8744   6.098   8.865   1.943
 1343W        W 8745   7.609   8.696   9.739
 1344W        W 8746  14.456   4.552   9.311
 1345W        W 8747  12.771   7.055   1.093
 1346W        W 8748  12.593   5.992   9.851
 1347W        W 8749  14.703   0.405   0.932
 1348W        W 8750   8.948   3.994   8.832
 1349W        W 8751  19.697   3.695   2.278
 1350W        W 8752   2.709   4.510   9.395
 1351W        W 8753   9.425   4.941   1.568
 1352W        W 8754   5.251   7.672   9.318
 1353W        W 8755  10.151   4.314   9.265
 1354W        W 8756   0.887   1.987   8.709
 1355W        W 8757   3.756   3.290   8.953
 1356W        W 8758  14.148   4.554   9.718
 1357W        W 8759   2.429   9.035   2.196
 1358W        W 8760   9.019   2.566   1.753
 1359W        W 8761   9.475   4.003   8.912
 1360W        W 8762  12.373   2.928   2.304
 1361W        W 8763   6.030   5.527   8.719
 1362W        W 8764   6.403   2.254   9.690
 1363W        W 8765   7.256   3.510   1.458
 1364W        W 8766   7.081   6.127   9.491
 1365W        W 8767   0.154   9.651   1.501
 1366W        W 8768  18.447   3.419   8.014
 1367W        W 8769  15.406   5.359   9.121
 1368W        W 8770  13.106   2.680   9.974
 1369W        W 8771   4.306   8.475   1.054
 1370W        W 8772   7.224   5.492   9.493
 1371W        W 8773  10.874   3.724   8.960
 1372W        W 8774   0.104   4.568   9.180
 1373W        W 8775  17.968   0.826   1.454
 1374W        W 8776  11.058   5.580   0.141
 1375W        W 8777  14.854   2.971   2.524
 1376W        W 8778   4.778   1.655   2.672
 1377W        W 8779   4.849   2.073   7.961
 1378W        W 8780  19.198   7.290   9.003
 1379W        W 8781   8.193   3.827   0.625
 1380W        W 8782  12.632   1.020   7.994
 1381W        W 8783  19.644   5.667   0.720
 1382W        W 8784   6.008   2.888   0.241
 1383W        W 8785  16.971   9.938   1.457
 1384W        W 8786   9.714   9.200   2.034
 1385W        W 8787  17.189   5.310   0.062
 1386W        W 8788  18.510   4.866   9.329
 1387W        W 8789   3.556   0.293   8.609
 1388W        W 8790   5.885   1.643   9.180
 1389W        W 8791   0.465   3.197   9.263
 1390W        W 8792  17.006   8.236   8.102
 1391W        W 8793  15.513   6.541   0.409
 1392W        W 8794   1.863   2.182   0.763
 1393W        W 8795  10.574   2.810   9.266
 1394W        W 8796  11.826   5.578   0.593
 1395W        W 8797   1.195   2.736   8.127
 1396W        W 8798  11.852   7.948   1.538
 1397W        W 8799  11.463   0.237   1.869
 1398W        W 8800  15.424   1.749   8.726
 1399W        W 8801  15.200   4.991   8.154
 1400W        W 8802  12.975   7.089   1.719
 1401W        W 8803   0.978   8.011   9.169
 1402W        W 8804   1.538   9.122   1.316
 1403W        W 8805  18.046   1.042   8.351
 1404W        W 8806  11.241   5.085   9.189
 1405W        W 8807  11.789   2.459   0.986
 1406W        W 8808   2.723   1.211   0.079
 1407W        W 8809  18.216   1.830   0.618
 1408W        W 8810   7.508   6.427   9.521
 1409W        W 8811  15.181   1.698   2.184
 1410W        W 8812  12.848   0.935   2.348
 1411W        W 8813   0.638   5.335   0.718
 1412W        W 8814  17.049   1.192   2.348
 1413W        W 8815   6.259   4.570   1.149
 1414W        W 8816  17.208   2.599   0.344
 1415W        W 8817  17.017   7.083   0.395
 1416W        W 8818  14.104   2.913   0.666
 1417W        W 8819   3.703   6.472   0.727
 1418W        W 8820   2.070   7.269   9.373
 1419W        W 8821  10.598   8.628   9.884
 1420W        W 8822   4.136   9.125   0.439
 1421W        W 8823  14.437   8.802   1.107
 1422W        W 8824  13.057   9.211   9.047
 1423W        W 8825   0.148   5.520   0.561
 1424W        W 8826   0.745   3.026   0.756
 1425W        W 8827   8.034   7.297   1.703
 1426W        W 8828  15.779   1.582   7.853
 1427W        W 8829   1.023   0.237   2.256
 1428W        W 8830  17.163   6.751   8.881
 1429W        W 8831   5.705   5.158   8.577
 1430W        W 8832  10.781   6.903   0.794
 1431W        W 8833   4.529   1.159   8.019
 1432W        W 8834  10.105   7.839   8.849
 1433W        W 8835   2.268   8.818   0.895
 1434W        W 8836  16.741   0.373   1.315
 1435W        W 8837   3.531   7.775   0.053
 1436W        W 8838   7.579   8.254   9.477
 1437W        W 8839  10.913   4.682   0.470
 1438W        W 8840   8.145   0.518   7.967
 1439W        W 8841  17.207   5.815   8.879
 1440W        W 8842   6.715   3.813   9.301
 1441W        W 8843  18.003   6.785   0.301
 1442W        W 8844   5.535   1.881   0.123
 1443W        W 8845   5.900   2.069   1.958
 1444W        W 8846  13.813   4.237   1.468
 1445W        W 8847   2.650   2.719   1.613
 1446W        W 8848   4.482   2.854   8.898
 1447W        W 8849   4.532   3.616   0.081
 1448W        W 8850   8.477   2.628   0.424
 1449W        W 8851  13.332   0.908   9.545
 1450W        W 8852   4.650   3.446   2.022
 1451W        W 8853   9.991   7.244   0.634
 1452W        W 8854  17.844   8.676   9.338
 1453W        W 8855   6.438   0.923   8.734
 1454W        W 8856   7.149   5.962   7.503
 1455W        W 8857   4.913   1.655   1.261
 1456W        W 8858   8.383   7.766   8.156
 1457W        W 8859   6.643   1.401   2.016
 1458W        W 8860   7.973   7.920   7.876
 1459W        W 8861  17.782   4.527   0.373
 1460W        W 8862   8.154   4.028   8.313
 1461W        W 8863  19.834   1.777   0.433
 1462W        W 8864  17.901   5.529   9.810
 1463W        W 8865   1.316   4.280   7.859
 1464W        W 8866  19.169   6.086   7.552
 1465W        W 8867  19.983   9.504   8.488
 1466W        W 8868   1.952   0.772   0.211
 1467W        W 8869  18.107   8.859   9.731
 1468W        W 8870   0.882   1.194   0.823
 1469W        W 8871   2.995   0.823   0.937
 1470W        W 8872  10.718   9.371   2.444
 1471W        W 8873   1.852   7.938   9.022
 1472W        W 8874  16.804   6.098   1.071
 1473W        W 8875   5.864   7.833   2.054
 1474W        W 8876  19.481   0.134   9.970
 1475W        W 8877   3.509   5.432   9.400
 1476W        W 8878  16.791   8.590   1.461
 1477W        W 8879  13.162   7.882   1.055
 1478W        W 8880  15.291   7.989   9.079
 1479W        W 8881   5.425   9.834   9.810
 1480W        W 8882   7.646   7.387   0.518
 1481W        W 8883  14.589   2.029   1.675
 1482W        W 8884  17.410   8.441   9.345
 1483W        W 8885   7.404   2.620   8.223
 1484W        W 8886  19.554   6.858   0.204
 1485W        W 8887   0.718   6.451   9.034
 1486W        W 8888   1.746   1.411   8.652
 1487W        W 8889   6.863   0.956   7.926
 1488W        W 8890  19.247   6.320   1.308
 1489W        W 8891  14.267   9.371   1.168
 1490W        W 8892  17.816   3.058   1.680
 1491W        W 8893  12.736   8.218   0.730
 1492W        W 8894  18.507   4.117   0.028
 1493W        W 8895  15.574   8.411   1.642
 1494W        W 8896  16.880   9.862   9.544
 1495W        W 8897  14.901   6.312   8.823
 1496W        W 8898  11.590   4.905   1.534
 1497W        W 8899  19.645   2.881   8.229
 1498W        W 8900   4.137   3.084   9.241
 1499W        W 8901  16.554   8.230   2.311
 1500W        W 8902  16.379   3.143   8.938
 1501W        W 8903   4.262   2.561   8.517
 1502W        W 8904   1.384   2.142   9.363
 1503W        W 8905  10.014   5.571   0.232
 1504W        W 8906  17.088   7.269   0.919
 1505W        W 8907   2.729   3.078   1.233
 1506W        W 8908   3.159   9.496   9.779
 1507W        W 8909   8.438   7.291   9.446
 1508W        W 8910   0.160   9.952   7.685
 1509W        W 8911   4.685   0.737   7.747
 1510W        W 8912   9.331   1.371   8.802
 1511W        W 8913  16.734   9.215   2.142
 1512W        W 8914   6.265   0.821   1.387
 1513W        W 8915  17.799   2.604   1.337
 1514W        W 8916  19.892   6.582   0.769
 1515W        W 8917  12.498   4.257   0.407
 1516W        W 8918   9.250   4.458   0.779
 1517W        W 8919   2.748   9.444   9.032
 1518W        W 8920   9.621   8.819   9.795
 1519W        W 8921  10.810   7.289   9.737
 1520W        W 8922   5.841   1.730   8.200
 1521W        W 8923  15.387   5.028   1.359
 1522W        W 8924   7.504   3.649   9.904
 1523W        W 8925   5.311   7.241   0.679
 1524W        W 8926  19.661   1.568   7.960
 1525W        W 8927  11.829   2.114   9.782
 1526W        W 8928   3.914   1.613   1.023
 1527W        W 8929  14.373   6.492   7.547
 1528W        W 8930  16.989   0.601   8.793
 1529W        W 8931   8.945   5.998   1.655
 1530W        W 8932   7.680   0.106   0.321
 1531W        W 8933   8.629   3.350   9.347
 1532W        W 8934  18.905   3.171   0.563
 1533W        W 8935   3.294   6.782   9.242
 1534W        W 8936  11.573   0.861   8.084
 1535W        W 8937   4.343   0.777   8.545
 1536W        W 8938   7.714   3.445   9.483
 1537W        W 8939  13.729   0.526   1.995
 1538W        W 8940   4.311   9.104   8.301
 1539W        W 8941  17.076   5.450   1.941
 1540W        W 8942  17.163   0.785   9.755
 1541W        W 8943   7.554   2.555   0.730
 1542W        W 8944   3.169   4.395   2.356
 1543W        W 8945  17.965   6.393   9.957
 1544W        W 8946   8.845   5.241   0.378
 1545W        W 8947   0.851   1.980   7.771
 1546W        W 8948  10.868   8.186   9.804
 1547W        W 8949  16.338   4.134   9.399
 1548W        W 8950  10.576   7.469   9.300
 1549W        W 8951  14.879   7.239   1.661
 1550W        W 8952   7.467   5.622   2.522
 1551W        W 8953   5.094   1.365   8.666
 1552W        W 8954   8.538   3.154   1.544
 1553W        W 8955   7.398   4.905   7.865
 1554W        W 8956   4.821   1.030   0.432
 1555W        W 8957  17.110   3.853   9.672
 1556W        W 8958   3.623   1.360   8.068
 1557W        W 8959  14.349   5.782   1.946
 1558W        W 8960  13.894   6.015   1.138
 1559W        W 8961   0.602   2.100   8.277
 1560W        W 8962   5.254   6.327   0.812
 1561W        W 8963  19.373   1.960   9.094
 1562W        W 8964   7.955   1.347   7.780
 1563W        W 8965  16.508   5.177   0.607
 1564W        W 8966  15.841   3.468   8.374
 1565W        W 8967   1.413   8.612   9.872
 1566W        W 8968  18.122   3.962   9.716
 1567W        W 8969  19.228   3.554   0.230
 1568W        W 8970   8.604   7.921   0.196
 1569W        W 8971   0.589   1.594   8.433
 1570W        W 8972  19.188   2.363   7.628
 1571W        W 8973   6.397   2.818   0.556
 1572W        W 8974  15.698   9.221   2.051
 1573W        W 8975  17.941   5.659   2.296
 1574W        W 8976  13.097   1.620   8.787
 1575W        W 8977   9.654   9.823   0.304
 1576W        W 8978  19.215   2.853   8.514
 1577W        W 8979  17.552   4.990   1.322
 1578W        W 8980   0.475   5.193   0.251
 1579W        W 8981  19.717   9.414   1.067
 1580W        W 8982   1.263   0.267   8.473
 1581W        W 8983   0.808   5.829   1.276
 1582W        W 8984   5.553   2.037   9.225
 1583W        W 8985   7.413   0.341   1.351
 1584W        W 8986   1.145   8.949   1.844
 1585W        W 8987  15.583   2.345   7.621
 1586W        W 8988  16.583   7.366   9.486
 1587W        W 8989  10.059   4.774   2.158
 1588W        W 8990  12.095   5.555   0.138
 1589W        W 8991  12.386   0.304   9.181
 1590W        W 8992  18.362   4.361   9.019
 1591W        W 8993   1.521   6.897   0.870
 1592W        W 8994  11.127   9.871   1.293
 1593W        W 8995   1.942   1.254   0.864
 1594W        W 8996   9.441   1.472   1.630
 1595W        W 8997  18.792   2.781   0.875
 1596W        W 8998   9.875   4.367   9.707
 1597W        W 8999  16.289   6.993   9.686
 1598W        W 9000  11.785   6.092   7.520
 1599W        W 9001  17.489   7.201   0.604
 1600W        W 9002   3.253   1.230   0.350
 1601W        W 9003  12.376   5.020   8.061
 1602W        W 9004   4.401   1.317   0.330
 1603W        W 9005   0.582   3.770   8.151
 1604W        W 9006  11.118   9.401   2.080
 1605W        W 9007   6.603   1.110   0.580
 1606W        W 9008  10.435   8.822   2.034
 1607W        W 9009   0.789   1.173   9.674
 1608W        W 9010  16.752   8.110   7.495
 1609W        W 9011   4.033   3.723   0.067
 1610W        W 9012  15.813   8.763   9.364
 1611W        W 9013  16.519   2.885   1.904
 1612W        W 9014   1.807   8.070   0.466
 1613W        W 9015  14.661   2.895   2.054
 1614W        W 9016  14.908   6.285   0.191
 1615W        W 9017   1.951   4.129   2.064
 1616W        W 9018  12.572   5.696   1.376
 1617W        W 9019   6.252   9.924   9.459
 1618W        W 9020   9.866   3.294   1.361
 1619W        W 9021   3.992   4.724   2.126
 1620W        W 9022   7.758   8.573   1.524
 1621W        W 9023  17.978   8.276   1.923
 1622W        W 9024   1.601   7.837   1.325
 1623W        W 9025  18.654   7.911   8.554
 1624W        W 9026  10.528   6.563   9.280
 1625W        W 9027  14.726   4.894   8.643
 1626W        W 9028   7.130   3.354   0.134
 1627W        W 9029   3.804   9.138   8.157
 1628W        W 9030  13.815   3.802   0.634
 1629W        W 9031  19.667   4.677   8.942
 1630W        W 9032  15.696   5.635   0.581
 1631W        W 9033  12.438   4.052   8.466
 1632W        W 9034  13.049   5.724   9.053
 1633W        W 9035  11.333   5.603   8.188
 1634W        W 9036  10.333   8.433   0.322
 1635W        W 9037  11.111   0.987   8.330
 1636W        W 9038   1.983   7.049   1.064
 1637W        W 9039  18.231   1.543   7.572
 1638W        W 9040  14.409   2.684   0.327
 1639W        W 9041  13.603   0.125   2.287
 1640W        W 9042   7.244   3.030   1.704
 1641W        W 9043   4.131   1.233   0.773
 1642W        W 9044   3.209   1.466   1.657
 1643W        W 9045   5.150   9.830   0.819
 1644W        W 9046   7.892   3.060   8.038
 1645W        W 9047  10.529   6.494   0.130
 1646W        W 9048   6.283   5.088   9.922
 1647W        W 9049   3.901   7.385   1.245
 1648W        W 9050  17.338   4.605   2.133
 1649W        W 9051   5.031   6.411   0.339
 1650W        W 9052  11.766   4.713   9.211
 1651W        W 9053  11.421   2.663   9.309
 1652W        W 9054  19.480   8.971   7.419
 1653W        W 9055   2.957   2.832   8.933
 1654W        W 9056   4.822   6.508   9.867
 1655W        W 9057  17.160   5.157   9.539
 1656W        W 9058  13.898   7.951   8.485
 1657W        W 9059  11.585   4.236   9.964
 1658W        W 9060   0.923   7.930   8.165
 1659W        W 9061  18.016   7.403   2.221
 1660W        W 9062   2.050   6.566   1.172
 1661W        W 9063  16.358   5.272   8.706
 1662W        W 9064  18.075   8.827   8.467
 1663W        W 9065  17.187   1.596   7.505
 1664W        W 9066  18.030   7.124   1.142
 1665W        W 9067  10.144   9.046   1.080
 1666W        W 9068  19.737   3.549   0.430
 1667W        W 9069  15.120   0.805   1.674
 1668W        W 9070   8.633   4.077   0.504
 1669W        W 9071   6.959   5.767   9.833
 1670W        W 9072   5.224   0.315   8.986
 1671W        W 9073   8.527   7.518   0.494
 1672W        W 9074   8.896   4.476   2.174
 1673W        W 9075   7.300   6.942   1.315
 1674W        W 9076  10.226   5.551   9.750
 1675W        W 9077  15.253   4.304   8.655
 1676W        W 9078   3.694   5.905   2.328
 1677W        W 9079  10.097   8.643   9.783
 1678W        W 9080  13.601   6.751   9.974
 1679W        W 9081  11.248   0.264   8.856
 1680W        W 9082   4.520   4.662   0.065
 1681W        W 9083   0.109   4.074   9.294
 1682W        W 9084   3.646   0.377   0.679
 1683W        W 9085   2.249   2.976   1.395
 1684W        W 9086  18.264   9.240   1.143
 1685W        W 9087  14.968   8.857   1.068
 1686W        W 9088   9.071   6.158   8.901
 1687W        W 9089  17.397   2.396   2.142
 1688W        W 9090   8.179   3.681   9.438
 1689W        W 9091  17.623   1.716   9.379
 1690W        W 9092   5.908   0.946   7.628
 1691W        W 9093  19.203   2.741   8.001
 1692W        W 9094  11.850   9.666   7.372
 1693W        W 9095  16.693   4.500   1.283
 1694W        W 9096  13.618   7.600   2.233
 1695W        W 9097   1.538   8.311   8.039
 1696W        W 9098   4.696   6.596   8.978
 1697W        W 9099   6.937   0.679   9.377
 1698W        W 9100   9.962   8.340   1.549
 1699W        W 9101  12.606   6.677   7.947
 1700W        W 9102  12.684   4.637   7.869
 1701W        W 9103   1.993   7.598   0.360
 1702W        W 9104   4.396   0.858   0.066
 1703W        W 9105  13.451   8.951   9.454
 1704W        W 9106   0.708   4.819   9.948
 1705W        W 9107  12.722   8.349   1.758
 1706W        W 9108   4.600   1.160   9.065
 1707W        W 9109   3.481   7.799   1.915
 1708W        W 9110  17.507   2.172   8.683
 1709W        W 9111   4.827   2.582   9.155
 1710W        W 9112  17.725   1.641   1.750
 1711W        W 9113   6.038   2.692   2.013
 1712W        W 9114   1.018   7.471   7.932
 1713W        W 9115  11.039   4.140   9.354
 1714W        W 9116  19.136   0.110   0.357
 1715W        W 9117  12.729   7.035   0.590
 1716W        W 9118   7.138   8.493   0.257
 1717W        W 9119   6.503   7.132   0.917
 1718W        W 9120   2.080   5.501   9.779
 1719W        W 9121  14.251   1.126   0.730
 1720W        W 9122   4.069   7.292   7.687
 1721W        W 9123  13.455   9.439   9.261
 1722W        W 9124   7.175   1.643   2.188
 1723W        W 9125  13.859   7.589   9.829
 1724W        W 9126   0.640   3.469   0.407
 1725W        W 9127   1.252   9.958   8.071
 1726W        W 9128  16.347   6.041   0.876
 1727W        W 9129  12.308   3.511   8.742
 1728W        W 9130   7.857   4.130   8.726
 1729W        W 9131  19.240   0.784   1.172
 1730W        W 9132  14.018   8.805   7.431
 1731W        W 9133   3.443   3.968   2.192
 1732W        W 9134  12.406   8.781   1.939
 1733W        W 9135  15.485   0.279   0.636
 1734W        W 9136   8.771   3.224   0.070
 1735W        W 9137   9.822   9.649   9.851
 1736W        W 9138  11.681   8.313   9.326
 1737W        W 9139   1.427   7.866   9.343
 1738W        W 9140  13.905   3.328   0.432
 1739W        W 9141  19.730   3.439   8.935
 1740W        W 9142   1.653   4.805   0.240
 1741W        W 9143  17.743   0.413   7.163
 1742W        W 9144   9.668   2.386   8.149
 1743W        W 9145   1.114   8.830   8.510
 1744W        W 9146  17.933   6.216   9.291
 1745W        W 9147   5.587   2.692   7.931
 1746W        W 9148   3.858   9.985   9.230
 1747W        W 9149   6.986   5.230   1.997
 1748W        W 9150   1.372   9.998   9.631
 1749W        W 9151  17.149   1.636   9.524
 1750W        W 9152  19.941   7.396   9.656
 1751W        W 9153  15.846   8.460   8.660
 1752W        W 9154   9.444   3.716   9.794
 1753W        W 9155   8.117   9.973   9.912
 1754W        W 9156  10.497   2.674   1.801
 1755W        W 9157   7.873   4.811   7.610
 1756W        W 9158  19.275   4.621   8.127
 1757W        W 9159  10.187   0.785   0.844
 1758W        W 9160   4.208   3.300   1.068
 1759W        W 9161  14.365   7.931   7.760
 1760W        W 9162   7.686   2.644   7.786
 1761W        W 9163   7.106   6.646   9.772
 1762W        W 9164  19.310   8.730   0.393
 1763W        W 9165  15.471   2.013   0.489
 1764W        W 9166  18.423   5.037   1.941
 1765W        W 9167  17.848   1.632   7.901
 1766W        W 9168  11.025   3.051   9.138
 1767W        W 9169  19.713   6.268   2.040
 1768W        W 9170  17.348   7.972   0.331
 1769W        W 9171   6.185   3.141   8.651
 1770W        W 9172   5.849   8.368   9.387
 1771W        W 9173  11.111   0.381   9.336
 1772W        W 9174   4.837   1.678   8.317
 1773W        W 9175  10.169   1.783   1.097
 1774W        W 9176  12.075   3.093   1.679
 1775W        W 9177   6.196   1.856   0.801
 1776W        W 9178  15.606   0.340   1.956
 1777W        W 9179   9.466   1.382   2.149
 1778W        W 9180  10.679   4.935   8.527
 1779W        W 9181  14.373   3.140   1.062
 1780W        W 9182   7.163   2.176   2.329
 1781W        W 9183   3.021   4.646   9.008
 1782W        W 9184  16.224   0.831   2.705
 1783W        W 9185  10.599   8.001   0.189
 1784W        W 9186  10.639   9.786   1.490
 1785W        W 9187  12.305   9.157   8.467
 1786W        W 9188   0.700   6.305   9.909
 1787W        W 9189  12.903   6.533   8.833
 1788W        W 9190  15.925   3.943   2.065
 1789W        W 9191  15.113   5.853   9.579
 1790W        W 9192  19.893   5.141   8.504
 1791W        W 9193   4.707   1.295   1.890
 1792W        W 9194   0.162   2.681   1.383
 1793W        W 9195   7.241   7.582   0.269
 1794W        W 9196  18.485   4.213   8.322
 1795W        W 9197   4.005   0.899   1.906
 1796W        W 9198   1.952   6.282   9.294
 1797W        W 9199   2.422   2.032   1.609
 1798W        W 9200  19.789   9.792   0.719
 1799W        W 9201   0.150   5.504   0.042
 1800W        W 9202  18.236   9.058   9.243
 1801W        W 9203   1.775   4.637   1.957
 1802W        W 9204  10.496   1.364   9.279
 1803W        W 9205   3.374   8.317   1.787
 1804W        W 9206  10.076   0.640   9.890
 1805W        W 9207  12.123   9.115   0.723
 1806W        W 9208  16.369   0.381   2.124
 1807W        W 9209  17.440   8.049   8.321
 1808W        W 9210   8.437   4.928   9.046
 1809W        W 9211  11.349   5.070   7.851
 1810W        W 9212  14.628   8.263   9.062
 1811W        W 9213  12.412   8.868   8.977
 1812W        W 9214   2.866   2.254   1.721
 1813W        W 9215   9.316   4.418   1.874
 1814W        W 9216   1.610   6.808   1.364
 1815W        W 9217   6.171   9.527   8.604
 1816W        W 9218   8.535   5.674   7.682
 1817W        W 9219   6.656   9.430   1.556
 1818W        W 9220   6.482   9.796   9.894
 1819W        W 9221  16.642   0.678   1.736
 1820W        W 9222   6.124   1.704   7.766
 1821W        W 9223  10.187   3.962   9.649
 1822W        W 9224   0.362   9.234   8.194
 1823W        W 9225   8.381   6.830   9.188
 1824W        W 9226   0.743   3.614   9.438
 1825W        W 9227  15.015   1.554   9.007
 1826W        W 9228   3.364   2.183   9.795
 1827W        W 9229  12.117   1.312   1.863
 1828W        W 9230  14.237   8.527   8.807
 1829W        W 9231   2.906   2.259   0.702
 1830W        W 9232   6.293   2.243   1.633
 1831W        W 9233  11.425   8.556   7.964
 1832W        W 9234  16.871   8.168   0.491
 1833W        W 9235   1.379   0.207   1.448
 1834W        W 9236  14.314   4.534   0.809
 1835W        W 9237  17.115   8.616   0.598
 1836W        W 9238   3.320   9.456   0.281
 1837W        W 9239  14.211   7.539   8.425
 1838W        W 9240  13.538   2.419   8.466
 1839W        W 9241  14.213   0.702   2.118
 1840W        W 9242  19.872   4.092   8.213
 1841W        W 9243   7.937   6.580   8.715
 1842W        W 9244   9.807   3.251   1.874
 1843W        W 9245   3.807   4.474   9.393
 1844W        W 9246   0.622   2.976   8.703
 1845W        W 9247   0.466   9.754   9.921
 1846W        W 9248  10.011   3.290   2.434
 1847W        W 9249  16.022   8.112   0.318
 1848W        W 9250  14.148   1.361   8.763
 1849W        W 9251  10.323   5.726   0.623
 1850W        W 9252  10.020   9.643   0.678
 1851W        W 9253  17.338   8.942   9.306
 1852W        W 9254  12.920   0.000   1.391
 1853W        W 9255  13.463   6.292   2.197
 1854W        W 9256   1.672   6.437   8.789
 1855W        W 9257   2.955   6.028   0.674
 1856W        W 9258   6.605   5.667   0.336
 1857W        W 9259   2.553   5.804   9.716
 1858W        W 9260   0.640   7.692   7.183
 1859W        W 9261   8.960   0.214   1.169
 1860W        W 9262  10.642   3.548   1.835
 1861W        W 9263   7.767   3.742   9.063
 1862W        W 9264   5.130   6.483   7.638
 1863W        W 9265  19.072   1.836   1.620
 1864W        W 9266  18.978   3.262   1.055
 1865W        W 9267  17.041   2.011   8.798
 1866W        W 9268   1.539   5.332   9.623
 1867W        W 9269  11.051   1.676   1.572
 1868W        W 9270  14.524   2.653   0.831
 1869W        W 9271  13.451   9.276   8.721
 1870W        W 9272  14.892   5.422   9.380
 1871W        W 9273  11.905   8.179   9.819
 1872W        W 9274   7.320   7.948   2.085
 1873W        W 9275   2.534   7.091   0.723
 1874W        W 9276  17.891   4.110   9.049
 1875W        W 9277  13.407   4.891   0.143
 1876W        W 9278   1.008   2.818   1.276
 1877W        W 9279   9.947   5.918   7.979
 1878W        W 9280  12.119   2.098   0.218
 1879W        W 9281   1.742   7.236   0.093
 1880W        W 9282   8.755   2.214   0.531
 1881W        W 9283   4.722   9.712   0.531
 1882W        W 9284  13.523   7.934   8.825
 1883W        W 9285   5.770   1.684   0.551
 1884W        W 9286   4.485   4.633   1.316
 1885W        W 9287   4.744   9.622   1.031
 1886W        W 9288   0.106   3.798   8.849
 1887W        W 9289   0.158   7.023   1.549
 1888W        W 9290  10.941   2.493   8.556
 1889W        W 9291  19.035   1.380   0.200
 1890W        W 9292   8.927   0.723   9.046
 1891W        W 9293  13.129   6.900   9.772
 1892W        W 9294  11.077   9.877   1.811
 1893W        W 9295  10.963   2.605   2.025
 1894W        W 9296   0.058   0.957   2.144
 1895W        W 9297   2.275   4.226   0.803
 1896W        W 9298   4.080   4.942   9.420
 1897W        W 9299  13.243   7.044   1.301
 1898W        W 9300  12.736   7.934   2.089
 1899W        W 9301   0.630   8.492   0.820
 1900W        W 9302  13.999   6.642   7.947
 1901W        W 9303   6.014   3.644   2.185
 1902W        W 9304  13.909   9.115   0.891
 1903W        W 9305  11.115   7.978   0.244
 1904W        W 9306  10.426   7.409   8.005
 1905W        W 9307   3.451   1.706   0.255
 1906W        W 9308  10.363   1.219   1.109
 1907W        W 9309  15.414   6.655   0.914
 1908W        W 9310   6.784   6.721   7.731
 1909W        W 9311   8.066   8.772   0.537
 1910W        W 9312   5.502   1.717   1.941
 1911W        W 9313   9.217   3.763   9.301
 1912W        W 9314   1.005   5.380   8.518
 1913W        W 9315  13.664   6.052   8.967
 1914W        W 9316  11.950   8.601   2.107
 1915W        W 9317   3.987   6.900   0.662
 1916W        W 9318   5.467   8.887   8.852
 1917W        W 9319   8.044   3.556   9.919
 1918W        W 9320  15.326   1.605   0.178
 1919W        W 9321  12.794   9.669   2.362
 1920W        W 9322   7.595   8.245   8.962
 1921W        W 9323  11.672   5.166   9.443
 1922W        W 9324   4.074   8.207   0.686
 1923W        W 9325   8.263   5.232   7.675
 1924W        W 9326  10.836   6.532   1.709
 1925W        W 9327  11.601   5.488   7.730
 1926W        W 9328  10.727   9.201   0.744
 1927W        W 9329   8.497   8.643   9.167
 1928W        W 9330  15.605   7.128   1.068
 1929W        W 9331  13.788   0.117   1.143
 1930W        W 9332   7.090   6.568   8.225
 1931W        W 9333   4.763   5.230   9.902
 1932W        W 9334  17.538   6.963   8.439
 1933W        W 9335   7.065   4.882   2.756
 1934W        W 9336   2.601   2.188   8.008
 1935W        W 9337   6.120   5.624   0.084
 1936W        W 9338  13.114   6.572   7.957
 1937W        W 9339  10.809   4.215   8.111
 1938W        W 9340   0.635   7.060   0.384
 1939W        W 9341  18.303   5.499   8.593
 1940W        W 9342  18.497   9.519   9.315
 1941W        W 9343   3.168   7.683   8.703
 1942W        W 9344   9.443   5.906   1.563
 1943W        W 9345  15.830   7.595   1.332
 1944W        W 9346   8.407   1.795   1.772
 1945W        W 9347   0.438   9.894   2.412
 1946W        W 9348  17.112   7.016   1.395
 1947W        W 9349   9.253   2.666   8.010
 1948W        W 9350   8.741   8.999   2.206
 1949W        W 9351   4.664   1.202   1.402
 1950W        W 9352  19.232   2.776   1.794
 1951W        W 9353  11.870   5.715   2.015
 1952W        W 9354   4.595   8.287   9.800
 1953W        W 9355  12.463   4.394   0.895
 1954W        W 9356   3.742   4.343   2.355
 1955W        W 9357  12.108   6.133   2.274
 1956W        W 9358  18.753   8.214   0.416
 1957W        W 9359  13.324   5.019   8.091
 1958W        W 9360   5.701   5.291   0.263
 1959W        W 9361  18.309   0.824   8.780
 1960W        W 9362  15.997   1.199   8.111
 1961W        W 9363  14.848   4.364   1.731
 1962W        W 9364  15.662   0.754   0.668
 1963W        W 9365  18.895   8.367   1.239
 1964W        W 9366  11.606   2.270   0.225
 1965W        W 9367   0.202   6.365   0.158
 1966W        W 9368   6.457   9.911   8.980
 1967W        W 9369   2.149   2.800   1.971
 1968W        W 9370   1.975   7.860   2.113
 1969W        W 9371  19.166   1.860   0.738
 1970W        W 9372   9.876   5.069   1.154
 1971W        W 9373  16.393   1.219   0.951
 1972W        W 9374  18.596   7.687   2.375
 1973W        W 9375   9.371   9.063   8.600
 1974W        W 9376  10.245   7.087   1.730
 1975W        W 9377  16.897   8.621   9.283
 1976W        W 9378   0.619   7.910   1.979
 1977W        W 9379   1.432   5.059   1.095
 1978W        W 9380  14.450   6.886   9.492
 1979W        W 9381   4.147   5.503   8.646
 1980W        W 9382   2.194   0.133   0.861
 1981W        W 9383  11.095   2.403   0.282
 1982W        W 9384   5.069   6.970   9.843
 1983W        W 9385  14.371   2.275   8.104
 1984W        W 9386  10.861   8.431   0.308
 1985W        W 9387   9.392   3.155   1.561
 1986W        W 9388  10.123   0.280   2.556
 1987W        W 9389   9.352   8.406   9.931
 1988W        W 9390  15.870   9.950   0.564
 1989W        W 9391  18.431   2.207   0.898
 1990W        W 9392  10.842   5.371   8.833
 1991W        W 9393   4.301   3.218   7.934
 1992W        W 9394  17.380   3.346   1.657
 1993W        W 9395  13.180   1.800   9.769
 1994W        W 9396  15.322   8.423   2.346
 1995W        W 9397   0.536   9.974   1.276
 1996W        W 9398  13.594   1.604   1.746
 1997W        W 9399   9.250   0.194   1.611
 1998W        W 9400  12.894   9.538   0.557
 1999W        W 9401  15.499   4.834   2.266
 2000W        W 9402  16.494   8.057   8.290
 2001W        W 9403  19.450   1.445   0.484
 2002W        W 9404   8.362   6.187   2.430
 2003W        W 9405   6.236   4.638   9.634
 2004W        W 9406   0.290   8.159   9.734
 2005W        W 9407   9.343   5.800   9.182
 2006W        W 9408  10.205   2.792   0.799
 2007W        W 9409  17.111   9.071   9.764
 2008W        W 9410   7.980   5.815   9.938
 2009W        W 9411  18.174   0.227   2.104
 2010W        W 9412  18.774   5.467   9.391
 2011W        W 9413   1.628   1.726   0.812
 2012W        W 9414   3.810   0.056   0.271
 2013W        W 9415   6.920   4.453   0.880
 2014W        W 9416  16.002   5.839   9.278
 2015W        W 9417  19.485   5.926   0.266
 2016W        W 9418  10.970   0.795   2.388
 2017W        W 9419   4.632   1.709   2.168
 2018W        W 9420  14.342   6.971   7.780
 2019W        W 9421   3.358   0.131   2.200
 2020W        W 9422   4.884   4.314   1.274
 2021W        W 9423  17.093   1.246   8.369
 2022W        W 9424   2.797   2.314   8.914
 2023W        W 9425  12.430   7.407   8.897
 2024W        W 9426   4.708   4.429   1.752
 2025W        W 9427   0.370   0.642   0.128
 2026W        W 9428  16.223   9.935   0.175
 2027W        W 9429  14.038   1.446   7.899
 2028W        W 9430   2.906   0.226   9.347
 2029W        W 9431  12.604   6.844   9.625
 2030W        W 9432   6.263   4.577   0.646
 2031W        W 9433  10.588   8.669   7.645
 2032W        W 9434  13.792   0.137   1.662
 2033W        W 9435   5.798   0.946   2.144
 2034W        W 9436  12.317   5.260   1.481
 2035W        W 9437   3.259   1.959   1.563
 2036W        W 9438  14.083   6.654   9.064
 2037W        W 9439  15.279   8.394   9.866
 2038W        W 9440   0.946   1.275   8.644
 2039W        W 9441   0.275   1.150   7.892
 2040W        W 9442   2.528   7.544   1.185
 2041W        W 9443  12.932   3.131   2.255
 2042W        W 9444   4.429   2.178   0.837
 2043W        W 9445  15.249   1.556   1.170
 2044W        W 9446  13.569   6.567   8.934
 2045W        W 9447  16.344   4.865   7.892
 2046W        W 9448  19.695   9.712   1.801
 2047W        W 9449  18.668   6.718   2.214
 2048W        W 9450   7.047   1.170   1.395
 2049W        W 9451  12.979   4.204   8.712
 2050W        W 9452  19.289   0.917   2.484
 2051W        W 9453  17.762   9.354   0.930
 2052W        W 9454   2.750   8.044   0.383
 2053W        W 9455   3.561   8.246   0.723
 2054W        W 9456  17.286   5.778   7.971
 2055W        W 9457  15.456   9.965   2.271
 2056W        W 9458   5.530   6.470   9.059
 2057W        W 9459   5.520   7.937   9.734
 2058W        W 9460   7.710   7.871   0.779
 2059W        W 9461  14.237   0.425   1.173
 2060W        W 9462  14.017   0.089   7.646
 2061W        W 9463   2.422   9.403   1.406
 2062W        W 9464   2.119   2.790   7.813
 2063W        W 9465   8.660   1.626   9.394
 2064W        W 9466  14.610   4.327   2.227
 2065W        W 9467  12.950   2.592   0.447
 2066W        W 9468   3.389   8.624   0.330
 2067W        W 9469   5.783   2.673   1.156
 2068W        W 9470   1.734   0.141   8.158
 2069W        W 9471  16.707   1.835   2.511
 2070W        W 9472  16.768   6.446   9.769
 2071W        W 9473   6.255   0.086   7.778
 2072W        W 9474  15.155   7.240   8.348
 2073W        W 9475   7.730   3.886   8.044
 2074W        W 9476  14.977   1.175   8.179
 2075W        W 9477  15.057   7.723   1.690
 2076W        W 9478   1.801   1.232   9.680
 2077W        W 9479  18.387   7.688   7.763
 2078W        W 9480  17.831   3.758   0.867
 2079W        W 9481   0.471   4.081   1.425
 2080W        W 9482   4.636   2.153   1.349
 2081W        W 9483   5.722   6.346   1.693
 2082W        W 9484  19.954   6.325   8.561
 2083W        W 9485  14.373   0.464   8.351
 2084W        W 9486  13.139   7.803   0.072
 2085W        W 9487  10.530   5.573   0.149
 2086W        W 9488  14.472   7.461   8.855
 2087W        W 9489  13.500   5.456   9.497
 2088W        W 9490  14.301   0.339   8.863
 2089W        W 9491  11.974   4.142   7.778
 2090W        W 9492  14.977   6.744   0.457
 2091W        W 9493  15.087   7.029   1.080
 2092W        W 9494   6.944   8.046   0.874
 2093W        W 9495  19.098   8.421   0.749
 2094W        W 9496  15.886   9.411   8.162
 2095W        W 9497   1.577   5.029   1.616
 2096W        W 9498  19.847   4.331   1.544
 2097W        W 9499  10.426   5.114   8.943
 2098W        W 9500   8.070   5.712   0.458
 2099W        W 9501  18.750   2.554   1.769
 2100W        W 9502   2.958   4.672   8.052
 2101W        W 9503   4.607   2.466   8.162
 2102W        W 9504   4.332   5.998   8.519
 2103W        W 9505   1.815   0.351   0.467
 2104W        W 9506  16.754   6.933   2.184
 2105W        W 9507  10.790   1.324   1.855
 2106W        W 9508   6.001   9.702   9.051
 2107W        W 9509  17.122   1.432   1.655
 2108W        W 9510   1.466   5.274   0.148
 2109W        W 9511   3.667   6.450   1.611
 2110W        W 9512  16.018   2.126   2.079
 2111W        W 9513  17.804   7.702   9.515
 2112W        W 9514   3.783   5.897   9.387
 2113W        W 9515   2.463   5.345   0.327
 2114W        W 9516   8.843   7.882   8.376
 2115W        W 9517  14.009   6.596   2.305
 2116W        W 9518   9.717   5.159   0.282
 2117W        W 9519  11.252   4.432   7.888
 2118W        W 9520   6.167   6.397   9.211
 2119W        W 9521  18.847   2.478   8.688
 2120W        W 9522   3.175   3.604   2.400
 2121W        W 9523  19.670   5.557   8.812
 2122W        W 9524  17.698   6.002   9.753
 2123W        W 9525  15.012   5.797   9.058
 2124W        W 9526  18.051   2.091   9.479
 2125W        W 9527   4.366   8.468   1.552
 2126W        W 9528  14.398   1.801   7.795
 2127W        W 9529  19.442   7.235   2.111
 2128W        W 9530  16.250   8.641   0.943
 2129W        W 9531  10.620   7.864   1.185
 2130W        W 9532  12.349   8.136   1.434
 2131W        W 9533   3.651   0.922   2.304
 2132W        W 9534  16.434   2.517   7.720
 2133W        W 9535   6.298   3.006   8.162
 2134W        W 9536  11.546   3.812   8.643
 2135W        W 9537   7.101   5.135   8.631
 2136W        W 9538  18.817   6.514   7.707
 2137W        W 9539   0.210   7.895   7.899
 2138W        W 9540  12.640   7.820   1.059
 2139W        W 9541  18.575   1.226   9.537
 2140W        W 9542  11.845   4.025   2.038
 2141W        W 9543  15.073   7.902   1.191
 2142W        W 9544  17.401   7.211   8.865
 2143W        W 9545   2.074   6.008   9.742
 2144W        W 9546   7.280   3.709   9.253
 2145W        W 9547  10.373   3.986   0.497
 2146W        W 9548   7.634   8.757   0.243
 2147W        W 9549  18.463   6.187   0.929
 2148W        W 9550  12.984   6.531   2.307
 2149W        W 9551   6.029   3.172   1.226
 2150W        W 9552  15.375   6.633   9.519
 2151W        W 9553   0.751   5.770   0.114
 2152W        W 9554  14.948   4.722   0.047
 2153W        W 9555   6.290   8.561   9.110
 2154W        W 9556  16.663   4.736   0.823
 2155W        W 9557   1.471   9.004   9.543
 2156W        W 9558   7.433   3.460   8.755
 2157W        W 9559  18.000   6.815   8.527
 2158W        W 9560  13.740   1.891   1.338
 2159W        W 9561   4.210   7.246   8.947
 2160W        W 9562   4.766   8.164   1.720
 2161W        W 9563   6.783   2.385   1.831
 2162W        W 9564  16.583   8.715   0.552
 2163W        W 9565   7.519   6.873   8.738
 2164W        W 9566  13.886   4.959   9.913
 2165W        W 9567   9.830   0.993   7.772
 2166W        W 9568  18.164   9.942   9.240
 2167W        W 9569   4.182   6.327   1.570
 2168W        W 9570  17.704   4.495   1.397
 2169W        W 9571  12.959   4.386   9.206
 2170W        W 9572   5.930   0.371   0.940
 2171W        W 9573  14.086   4.624   1.253
 2172W        W 9574   1.104   8.194   7.761
 2173W        W 9575   3.173   5.131   8.189
 2174W        W 9576  12.050   7.223   0.579
 2175W        W 9577   5.352   4.555   1.189
 2176W        W 9578   7.034   1.168   8.720
 2177W        W 9579   6.208   7.572   0.858
 2178W        W 9580  11.848   1.733   1.009
 2179W        W 9581   7.688   0.626   1.009
 2180W        W 9582  18.206   6.348   0.503
 2181W        W 9583  17.122   5.209   1.509
 2182W        W 9584  15.623   0.705   1.614
 2183W        W 9585  11.323   1.367   8.050
 2184W        W 9586   2.856   2.507   0.256
 2185W        W 9587  15.745   3.112   9.613
 2186W        W 9588   1.277   2.137   0.762
 2187W        W 9589  19.914   1.659   1.754
 2188W        W 9590  11.089   1.195   9.214
 2189W        W 9591  14.534   1.289   8.420
 2190W        W 9592   1.916   3.229   2.076
 2191W        W 9593  11.669   7.816   8.958
 2192W        W 9594   1.160   6.647   1.152
 2193W        W 9595   8.712   9.788   1.263
 2194W        W 9596  11.818   4.486   8.119
 2195W        W 9597  12.797   7.209   7.951
 2196W        W 9598   0.376   1.389   1.709
 2197W        W 9599   1.568   8.718   8.737
 2198W        W 9600   8.735   9.459   9.253
 2199W        W 9601  15.801   6.371   8.621
 2200W        W 9602   4.425   7.410   2.116
 2201W        W 9603  15.941   8.989   8.484
 2202W        W 9604  14.499   0.363   2.383
 2203W        W 9605   9.091   5.784   1.199
 2204W        W 9606   5.702   0.299   9.843
 2205W        W 9607  16.506   2.083   0.485
 2206W        W 9608   2.454   1.347   0.875
 2207W        W 9609   0.200   9.245   1.161
 2208W        W 9610  19.758   0.948   1.234
 2209W        W 9611  18.932   5.089   9.098
 2210W        W 9612  10.048   6.062   0.998
 2211W        W 9613   9.472   4.075   1.052
 2212W        W 9614  15.085   9.079   1.938
 2213W        W 9615  13.433   3.216   1.093
 2214W        W 9616  19.707   0.664   8.888
 2215W        W 9617   4.623   1.208   8.524
 2216W        W 9618  14.245   3.611   9.720
 2217W        W 9619  11.576   0.501   9.566
 2218W        W 9620   5.529   3.148   1.291
 2219W        W 9621   4.809   5.690   7.747
 2220W        W 9622  15.151   4.059   8.207
 2221W        W 9623  12.369   2.899   0.509
 2222W        W 9624   1.938   7.977   8.118
 2223W        W 9625   6.467   0.560   9.129
 2224W        W 9626   6.560   5.163   1.238
 2225W        W 9627   6.508   6.356   8.215
 2226W        W 9628   7.119   7.021   7.961
 2227W        W 9629   7.040   3.573   9.675
 2228W        W 9630  11.019   2.156   2.346
 2229W        W 9631  18.461   2.221   0.368
 2230W        W 9632   8.261   9.683   7.864
 2231W        W 9633  14.804   3.613   0.706
 2232W        W 9634  17.359   2.844   1.770
 2233W        W 9635   7.171   8.443   9.225
 2234W        W 9636  14.340   1.759   8.299
 2235W        W 9637   0.358   5.757   7.843
 2236W        W 9638  14.649   0.722   8.976
 2237W        W 9639  11.618   7.774   1.107
 2238W        W 9640   5.430   1.096   7.548
 2239W        W 9641   7.463   1.400   9.957
 2240W        W 9642   4.778   4.111   2.157
 2241W        W 9643   9.411   3.608   1.840
 2242W        W 9644  15.732   3.306   7.857
 2243W        W 9645  17.463   4.251   1.793
 2244W        W 9646  18.397   6.736   8.243
 2245W        W 9647  16.031   8.849   1.877
 2246W        W 9648   2.327   5.296   1.574
 2247W        W 9649   3.870   2.374   9.740
 2248W        W 9650  15.107   9.874   1.835
 2249W        W 9651  10.967   2.815   0.549
 2250W        W 9652   5.718   8.428   0.435
 2251W        W 9653  14.603   3.150   0.583
 2252W        W 9654   0.828   3.085   8.228
 2253W        W 9655   5.944   5.394   1.457
 2254W        W 9656   4.291   9.868   0.307
 2255W        W 9657  19.203   3.671   9.248
 2256W        W 9658   8.344   7.777   7.550
 2257W        W 9659   9.902   1.478   2.386
 2258W        W 9660   9.024   2.308   0.102
 2259W        W 9661   0.476   6.199   9.425
 2260W        W 9662  16.073   8.362   1.686
 2261W        W 9663   5.609   9.543   8.027
 2262W        W 9664  17.073   0.394   1.754
 2263W        W 9665  10.849   7.344   8.871
 2264W        W 9666  19.798   2.055   9.387
 2265W        W 9667   4.923   9.324   8.633
 2266W        W 9668   4.681   6.024   8.156
 2267W        W 9669  10.734   3.110   1.490
 2268W        W 9670  16.413   2.260   2.444
 2269W        W 9671  17.869   8.898   1.116
 2270W        W 9672  19.110   9.743   7.659
 2271W        W 9673   8.601   7.928   2.260
 2272W        W 9674  12.769   3.778   8.067
 2273W        W 9675  13.196   4.568   7.913
 2274W        W 9676   8.513   8.521   0.996
 2275W        W 9677  13.977   4.022   2.097
 2276W        W 9678   7.823   3.859   0.266
 2277W        W 9679  13.554   3.643   0.183
 2278W        W 9680  17.992   4.969   0.568
 2279W        W 9681  17.101   6.538   9.356
 2280W        W 9682  12.941   1.725   9.287
 2281W        W 9683  12.652   9.887   8.768
 2282W        W 9684  15.837   6.953   8.935
 2283W        W 9685  15.325   3.101   2.294
 2284W        W 9686  19.786   2.967   2.091
 2285W        W 9687  17.715   7.743   0.001
 2286W        W 9688   4.867   2.102   2.386
 2287W        W 9689  16.383   3.054   7.193
 2288W        W 9690  14.052   0.436   9.779
 2289W        W 9691  12.528   1.281   9.860
 2290W        W 9692   4.737   4.018   0.341
 2291W        W 9693  17.600   3.540   0.471
 2292W        W 9694   6.137   2.612   8.774
 2293W        W 9695  11.553   9.722   8.292
 2294W        W 9696  13.979   2.885   9.668
 2295W        W 9697   3.014   6.966   9.651
 2296W        W 9698   0.632   7.946   1.457
 2297W        W 9699   6.278   3.432   9.136
 2298W        W 9700   7.502   0.794   1.992
 2299W        W 9701  13.010   8.298   0.264
 2300W        W 9702  14.594   7.601   1.902
 2301W        W 9703  15.916   9.487   8.668
 2302W        W 9704   4.331   3.322   9.672
 2303W        W 9705  12.230   1.231   1.348
 2304W        W 9706   0.466   7.543   0.461
 2305W        W 9707  19.303   5.510   2.436
 2306W        W 9708  12.745   6.982   2.168
 2307W        W 9709   5.411   2.470   0.714
 2308W        W 9710  17.241   6.175   0.479
 2309W        W 9711   5.101   5.447   1.689
 2310W        W 9712  15.361   6.973   8.725
 2311W        W 9713   0.089   1.568   7.671
 2312W        W 9714   8.305   9.010   0.927
 2313W        W 9715  14.638   3.015   1.536
 2314W        W 9716   0.106   7.060   8.480
 2315W        W 9717   7.803   5.586   1.063
 2316W        W 9718   2.155   1.753   0.784
 2317W        W 9719   4.392   2.289   9.860
 2318W        W 9720  16.612   3.898   0.656
 2319W        W 9721  13.845   4.444   7.978
 2320W        W 9722  11.025   5.615   9.243
 2321W        W 9723   5.898   3.110   7.858
 2322W        W 9724   6.474   9.336   0.184
 2323W        W 9725   5.867   8.828   9.145
 2324W        W 9726   1.524   3.543   8.223
 2325W        W 9727  14.959   0.592   9.356
 2326W        W 9728   1.453   2.657   9.014
 2327W        W 9729   6.614   4.426   8.732
 2328W        W 9730  14.843   8.343   1.066
 2329W        W 9731   9.478   2.172   8.793
 2330W        W 9732  12.761   2.680   2.523
 2331W        W 9733  18.800   7.217   0.356
 2332W        W 9734   9.309   5.319   1.220
 2333W        W 9735  15.619   3.937   9.948
 2334W        W 9736   7.261   9.933   8.005
 2335W        W 9737   5.874   8.767   7.806
 2336W        W 9738  12.816   2.652   1.518
 2337W        W 9739  11.873   7.265   9.731
 2338W        W 9740  13.668   9.718   8.898
 2339W        W 9741  12.157   4.821   8.862
 2340W        W 9742   1.018   3.543   8.289
 2341W        W 9743   1.047   7.878   0.168
 2342W        W 9744  14.873   9.855   2.283
 2343W        W 9745  17.721   2.616   0.202
 2344W        W 9746   1.722   6.028   1.964
 2345W        W 9747   8.755   1.775   8.297
 2346W        W 9748   5.059   6.359   9.296
 2347W        W 9749   6.698   6.082   2.474
 2348W        W 9750   4.595   1.267   9.587
 2349W        W 9751   3.278   6.089   1.508
 2350W        W 9752   1.905   8.345   2.266
 2351W        W 9753   1.458   6.367   0.189
 2352W        W 9754   3.528   9.691   9.484
 2353W        W 9755  10.193   6.932   7.964
 2354W        W 9756   3.993   4.748   1.217
 2355W        W 9757  13.448   1.364   9.333
 2356W        W 9758   1.924   9.759   8.833
 2357W        W 9759  16.337   1.614   8.080
 2358W        W 9760  12.628   5.137   9.043
 2359W        W 9761  19.023   4.235   0.556
 2360W        W 9762   4.265   6.842   0.245
 2361W        W 9763  17.509   5.627   2.585
 2362W        W 9764  18.384   8.433   1.625
 2363W        W 9765  18.437   9.225   2.048
 2364W        W 9766  15.098   6.290   0.676
 2365W        W 9767  12.473   7.826   8.522
 2366W        W 9768   3.474   7.340   2.149
 2367W        W 9769   2.360   3.612   8.342
 2368W        W 9770   9.032   8.223   7.624
 2369W        W 9771   4.988   0.359   8.517
 2370W        W 9772  12.477   8.054   8.039
 2371W        W 9773   4.379   5.660   7.437
 2372W        W 9774   3.136   7.865   9.727
 2373W        W 9775  14.435   2.189   0.118
 2374W        W 9776   3.858   1.625   8.494
 2375W        W 9777  19.054   6.776   0.413
 2376W        W 9778   5.090   5.977   8.465
 2377W        W 9779  18.857   4.022   2.279
 2378W        W 9780  13.690   8.507   9.174
 2379W        W 9781  18.897   5.971   0.201
 2380W        W 9782  16.849   3.925   2.436
 2381W        W 9783   9.578   4.767   9.836
 2382W        W 9784  19.289   6.405   9.461
 2383W        W 9785  17.055   9.448   0.344
 2384W        W 9786  16.423   4.062   1.132
 2385W        W 9787   0.683   1.989   9.847
 2386W        W 9788  11.480   2.017   2.218
 2387W        W 9789   9.946   4.854   8.100
 2388W        W 9790  12.572   0.126   2.337
 2389W        W 9791  15.658   0.726   7.942
 2390W        W 9792   0.888   5.764   0.624
 2391W        W 9793  10.619   7.810   8.897
 2392W        W 9794   2.967   5.691   7.413
 2393W        W 9795  19.393   8.851   8.421
 2394W        W 9796   1.141   5.866   1.712
 2395W        W 9797   6.606   2.692   7.829
 2396W        W 9798  16.951   5.629   1.237
 2397W        W 9799  18.123   4.153   0.822
 2398W        W 9800  16.036   4.128   9.004
 2399W        W 9801   6.740   8.792   9.711
 2400W        W 9802   8.412   3.089   8.022
 2401W        W 9803   0.371   1.786   1.336
 2402W        W 9804  18.964   1.383   0.705
 2403W        W 9805   2.619   2.042   0.318
 2404W        W 9806   2.674   9.964   7.718
 2405W        W 9807   3.901   5.136   0.901
 2406W        W 9808  15.486   1.338   9.032
 2407W        W 9809  18.939   3.994   1.113
 2408W        W 9810  14.189   9.362   9.968
 2409W        W 9811  19.124   0.869   1.994
 2410W        W 9812   5.148   9.497   7.792
 2411W        W 9813   3.534   4.658   8.971
 2412W        W 9814   2.953   1.696   1.212
 2413W        W 9815   7.184   0.731   1.600
 2414W        W 9816  16.936   7.389   8.696
 2415W        W 9817  10.591   2.355   9.479
 2416W        W 9818   7.521   4.175   0.521
 2417W        W 9819   0.682   9.940   8.055
 2418W        W 9820  15.959   5.865   2.160
 2419W        W 9821   0.284   9.180   8.709
 2420W        W 9822   3.531   4.008   9.329
 2421W        W 9823   5.536   6.132   8.219
 2422W        W 9824   2.384   8.554   9.855
 2423W        W 9825  18.174   3.022   9.320
 2424W        W 9826  12.942   4.067   0.178
 2425W        W 9827  19.823   8.914   8.747
 2426W        W 9828   7.202   7.680   1.675
 2427W        W 9829  14.285   0.601   0.688
 2428W        W 9830   6.350   4.599   9.122
 2429W        W 9831  18.758   7.448   8.245
 2430W        W 9832  14.558   1.727   8.760
 2431W        W 9833   5.262   9.831   9.292
 2432W        W 9834   8.125   9.917   8.303
 2433W        W 9835  18.825   7.993   0.860
 2434W        W 9836   2.205   0.836   7.752
 2435W        W 9837   2.202   4.734   0.852
 2436W        W 9838   7.879   9.628   9.610
 2437W        W 9839  17.469   9.448   9.179
 2438W        W 9840  11.913   3.570   2.288
 2439W        W 9841  19.251   5.552   9.613
 2440W        W 9842  12.608   3.320   7.909
 2441W        W 9843  16.853   2.386   7.489
 2442W        W 9844  17.978   0.598   0.318
 2443W        W 9845   4.515   9.260   9.617
 2444W        W 9846   6.798   3.047   0.345
 2445W        W 9847  13.201   6.135   8.770
 2446W        W 9848  14.249   0.071   9.479
 2447W        W 9849  16.982   7.183   9.153
 2448W        W 9850   5.401   2.616   8.445
 2449W        W 9851   6.543   8.988   2.202
 2450W        W 9852  19.407   8.703   9.322
 2451W        W 9853   3.462   4.857   1.060
 2452W        W 9854   7.982   5.094   8.826
 2453W        W 9855  11.578   3.821   0.250
 2454W        W 9856   5.079   1.227   8.178
 2455W        W 9857  18.199   5.928   9.754
 2456W        W 9858  19.306   6.511   7.857
 2457W        W 9859   0.757   9.346   1.822
 2458W        W 9860  12.538   5.046   0.603
 2459W        W 9861  10.664   0.402   8.979
 2460W        W 9862   3.968   2.834   8.827
 2461W        W 9863  12.099   2.106   9.332
 2462W        W 9864  18.391   8.491   7.680
 2463W        W 9865   3.984   5.235   2.240
 2464W        W 9866   5.378   0.855   2.426
 2465W        W 9867   9.918   0.164   9.706
 2466W        W 9868   4.566   6.052   9.857
 2467W        W 9869   7.098   6.590   9.257
 2468W        W 9870   6.426   5.447   9.058
 2469W        W 9871  12.456   0.820   1.083
 2470W        W 9872   0.370   1.223   0.851
 2471W        W 9873   8.529   5.079   1.645
 2472W        W 9874  17.114   8.864   2.027
 2473W        W 9875   2.422   1.547   0.393
 2474W        W 9876   0.128   2.599   1.892
 2475W        W 9877  10.981   8.497   1.168
 2476W        W 9878  13.229   6.680   1.863
 2477W        W 9879   8.903   7.452   7.620
 2478W        W 9880  13.396   4.428   8.365
 2479W        W 9881   9.477   9.294   1.346
 2480W        W 9882   6.925   0.681   8.855
 2481W        W 9883   2.774   7.720   9.036
 2482W        W 9884  11.747   1.494   8.841
 2483W        W 9885  14.954   4.550   8.319
 2484W        W 9886  13.438   3.439   0.638
 2485W        W 9887  10.983   3.550   9.422
 2486W        W 9888   7.674   3.167   2.021
 2487W        W 9889  18.759   4.658   8.856
 2488W        W 9890   0.975   4.205   0.277
 2489W        W 9891   3.822   9.717   0.875
 2490W        W 9892   8.029   1.265   8.375
 2491W        W 9893   3.968   0.546   0.330
 2492W        W 9894   3.170   1.954   8.020
 2493W        W 9895   8.639   8.821   0.140
 2494W        W 9896  10.580   1.589   8.793
 2495W        W 9897   9.070   6.179   7.899
 2496W        W 9898   7.667   3.638   2.255
 2497W        W 9899   2.461   3.176   1.812
 2498W        W 9900   1.469   0.890   1.619
 2499W        W 9901   8.253   7.003   2.070
 2500W        W 9902   8.921   0.249   0.651
 2501W        W 9903   7.790   6.840   2.260
 2502W        W 9904  19.322   0.200   7.548
 2503W        W 9905  10.757   9.251   8.391
 2504W        W 9906   4.456   6.029   1.890
 2505W        W 9907  14.007   5.516   1.017
 2506W        W 9908  16.548   0.044   8.166
 2507W        W 9909  11.381   4.711   0.653
 2508W        W 9910   1.218   5.161   7.692
 2509W        W 9911  17.697   7.496   0.972
 2510W        W 9912   3.421   3.493   9.317
 2511W        W 9913  10.160   7.124   2.239
 2512W        W 9914  10.772   4.692   9.951
 2513W        W 9915   5.395   1.532   9.304
 2514W        W 9916   2.757   5.153   7.862
 2515W        W 9917   3.022   6.197   2.207
 2516W        W 9918  12.969   8.661   8.195
 2517W        W 9919   0.610   1.671   0.867
 2518W        W 9920   7.249   8.936   8.474
 2519W        W 9921   9.935   4.710   0.187
 2520W        W 9922  17.502   8.457   7.980
 2521W        W 9923   9.028   9.789   0.836
 2522W        W 9924   4.781   2.630   9.684
 2523W        W 9925  18.177   9.252   8.735
 2524W        W 9926   1.098   3.617   8.794
 2525W        W 9927  15.984   2.439   7.911
 2526W        W 9928  11.352   7.736   0.649
 2527W        W 9929   7.631   8.685   8.707
 2528W        W 9930  11.510   8.809   8.415
 2529W        W 9931   6.651   6.188   0.409
 2530W        W 9932   0.774   5.809   9.596
 2531W        W 9933  10.832   1.227   1.337
 2532W        W 9934   8.210   5.399   9.750
 2533W        W 9935   0.341   5.655   1.460
 2534W        W 9936   5.747   3.323   0.352
 2535W        W 9937  17.523   4.968   0.293
 2536W        W 9938  17.742   0.749   7.617
 2537W        W 9939   3.314   9.198   2.086
 2538W        W 9940   6.152   4.139   0.375
 2539W        W 9941  12.573   8.960   0.969
 2540W        W 9942   9.219   1.793   8.528
 2541W        W 9943  15.280   9.753   7.666
 2542W        W 9944   1.214   7.549   9.756
 2543W        W 9945   4.750   7.271   7.891
 2544W        W 9946  11.094   8.298   1.621
 2545W        W 9947  13.358   9.828   1.075
 2546W        W 9948  15.378   2.035   0.996
 2547W        W 9949   6.611   7.056   0.193
 2548W        W 9950  11.066   5.091   9.739
 2549W        W 9951   5.200   3.982   2.452
 2550W        W 9952   0.716   8.459   1.306
 2551W        W 9953  13.308   2.494   0.807
 2552W        W 9954  10.301   4.065   8.253
 2553W        W 9955  14.617   1.003   9.409
 2554W        W 9956   2.945   2.226   8.414
 2555W        W 9957   9.030   0.859   9.997
 2556W        W 9958   2.939   5.645   1.598
 2557W        W 9959  12.647   7.471   2.296
 2558W        W 9960  17.998   1.233   8.813
 2559W        W 9961   0.682   2.166   0.893
 2560W        W 9962  11.245   4.277   0.366
 2561W        W 9963  18.846   0.368   9.768
 2562W        W 9964  14.896   1.908   0.242
 2563W        W 9965  16.239   0.287   1.330
 2564W        W 9966   0.114   1.770   0.876
 2565W        W 9967   7.137   7.084   9.507
 2566W        W 9968   6.155   4.131   0.886
 2567W        W 9969  19.451   5.808   2.002
 2568W        W 9970  15.870   7.106   2.577
 2569W        W 9971   2.228   1.243   1.314
 2570W        W 9972  12.324   4.876   1.070
 2571W        W 9973  13.019   0.280   8.551
 2572W        W 9974   7.970   7.021   8.441
 2573W        W 9975   5.714   8.662   0.881
 2574W        W 9976  14.888   0.411   8.168
 2575W        W 9977  12.957   4.549   7.449
 2576W        W 9978  11.971   3.024   9.289
 2577W        W 9979  15.335   7.396   1.420
 2578W        W 9980  13.720   8.993   0.428
 2579W        W 9981   2.593   0.859   9.583
 2580W        W 9982  11.935   8.289   8.857
 2581W        W 9983  10.618   0.700   0.027
 2582W        W 9984  16.594   2.557   1.516
 2583W        W 9985  17.485   5.729   2.076
 2584W        W 9986  13.478   3.590   9.677
 2585W        W 9987   2.687   4.490   2.154
 2586W        W 9988   6.640   6.380   9.628
 2587W        W 9989  14.880   1.654   7.995
 2588W        W 9990   6.511   2.990   8.992
 2589W        W 9991   5.235   3.658   1.029
 2590W        W 9992   7.681   3.173   1.502
 2591W        W 9993  13.444   6.747   9.410
 2592W        W 9994  19.814   0.594   9.942
 2593W        W 9995   9.372   6.741   1.139
 2594W        W 9996   9.429   1.273   7.907
 2595W        W 9997   9.001   7.877   8.886
 2596W        W 9998   6.444   3.961   8.032
 2597W        W 9999   5.564   6.175   7.681
 2598W        W10000   9.791   7.896   1.724
 2599W        W10001   2.263   9.199   0.478
 2600W        W10002  10.621   8.372   9.388
 2601W        W10003  18.072   2.070   2.530
 2602W        W10004  16.535   2.907   2.791
 2603W        W10005   4.359   2.595   9.399
 2604W        W10006  16.538   7.499   1.791
 2605W        W10007   8.918   5.998   9.790
 2606W        W10008   5.385   8.158   9.280
 2607W        W10009   1.157   1.776   9.658
 2608W        W10010   0.843   6.609   8.414
 2609W        W10011   5.658   9.828   0.269
 2610W        W10012   4.585   3.645   1.058
 2611W        W10013   2.296   2.631   2.522
 2612W        W10014  17.240   1.799   0.982
 2613W        W10015   8.962   5.044   9.651
 2614W        W10016   0.918   4.098   1.125
 2615W        W10017  18.023   4.167   8.550
 2616W        W10018  16.894   6.065   0.121
 2617W        W10019  14.907   6.544   1.082
 2618W        W10020   5.084   2.578   8.040
 2619W        W10021   5.305   0.768   8.407
 2620W        W10022   5.579   3.912   2.135
 2621W        W10023  15.702   7.435   0.647
 2622W        W10024   4.066   7.732   8.841
 2623W        W10025   6.336   8.980   9.425
 2624W        W10026   2.050   2.607   9.853
 2625W        W10027   3.686   3.390   0.946
 2626W        W10028   0.192   9.877   8.197
 2627W        W10029  14.536   5.947   8.890
 2628W        W10030   3.121   8.976   1.219
 2629W        W10031   0.459   6.142   2.205
 2630W        W10032   6.817   2.966   1.389
 2631W        W10033   0.847   3.883   0.660
 2632W        W10034  19.662   5.445   0.245
 2633W        W10035   1.601   0.706   9.797
 2634W        W10036   6.662   6.184   9.156
 2635W        W10037   5.529   7.696   0.759
 2636W        W10038   1.780   8.299   8.514
 2637W        W10039   2.759   9.434   0.095
 2638W        W10040  11.549   2.534   2.113
 2639W        W10041   2.308   6.656   2.428
 2640W        W10042  10.622   2.190   8.292
 2641W        W10043  15.823   1.163   0.945
 2642W        W10044  18.811   8.578   9.139
 2643W        W10045   7.339   1.519   8.952
 2644W        W10046  17.384   5.604   9.680
 2645W        W10047   9.920   8.901   8.329
 2646W        W10048  18.334   5.522   0.084
 2647W        W10049  12.059   4.075   0.185
 2648W        W10050   5.806   9.262   8.829
 2649W        W10051   8.692   2.294   8.381
 2650W        W10052   9.010   3.481   9.689
 2651W        W10053   3.790   1.908   0.624
 2652W        W10054  19.190   6.571   7.362
 2653W        W10055   4.068   6.960   8.150
 2654W        W10056  10.532   1.606   7.705
 2655W        W10057   9.703   6.173   9.295
 2656W        W10058   3.102   7.121   2.423
 2657W        W10059   1.757   3.783   1.673
 2658W        W10060  19.232   6.025   8.924
 2659W        W10061  15.281   8.863   9.315
 2660W        W10062   8.435   9.363   1.312
 2661W        W10063   4.728   7.034   1.180
 2662W        W10064  12.861   8.794   0.136
 2663W        W10065   0.847   0.401   9.351
 2664W        W10066   4.463   5.895   0.708
 2665W        W10067   3.814   3.536   8.490
 2666W        W10068   1.297   9.965   1.914
 2667W        W10069  19.449   9.473   7.236
 2668W        W10070   7.018   4.753   2.263
 2669W        W10071   4.249   6.690   2.452
 2670W        W10072   7.390   9.362   9.203
 2671W        W10073   4.885   3.602   0.640
 2672W        W10074  18.265   9.004   1.617
 2673W        W10075  11.728   1.744   0.133
 2674W        W10076   0.599   2.253   1.428
 2675W        W10077   1.132   6.694   8.895
 2676W        W10078   1.621   3.653   8.884
 2677W        W10079  10.853   8.261   2.077
 2678W        W10080  17.446   5.959   9.314
 2679W        W10081  15.002   4.556   9.473
 2680W        W10082  16.088   4.869   9.994
 2681W        W10083   1.868   6.854   7.603
 2682W        W10084   1.269   5.021   0.576
 2683W        W10085  17.934   0.818   9.123
 2684W        W10086   0.342   9.474   7.732
 2685W        W10087  16.228   9.287   2.091
 2686W        W10088  10.184   0.631   9.015
 2687W        W10089   8.974   5.201   9.165
 2688W        W10090   8.853   1.168   8.818
 2689W        W10091   7.486   9.922   9.838
 2690W        W10092  16.164   0.819   7.818
 2691W        W10093   7.953   1.798   0.751
 2692W        W10094  10.299   3.661   1.352
 2693W        W10095  16.980   7.834   8.416
 2694W        W10096  16.029   4.557   9.317
 2695W        W10097  17.810   7.748   8.509
 2696W        W10098   6.822   3.253   1.844
 2697W        W10099   6.729   8.312   9.477
 2698W        W10100   8.178   0.088   9.415
 2699W        W10101  16.293   3.396   8.106
 2700W        W10102   7.977   9.300   7.678
 2701W        W10103  17.345   2.593   8.445
 2702W        W10104   6.363   1.250   0.020
 2703W        W10105  19.146   7.726   9.280
 2704W        W10106   7.832   6.931   1.363
 2705W        W10107  19.779   8.093   9.952
 2706W        W10108   7.956   2.867   0.442
 2707W        W10109  18.283   3.286   1.609
 2708W        W10110   9.484   1.058   0.622
 2709W        W10111   3.956   2.634   0.218
 2710W        W10112   5.855   3.088   1.708
 2711W        W10113   7.074   2.265   9.732
 2712W        W10114   6.119   6.952   0.028
 2713W        W10115   3.258   5.827   1.957
 2714W        W10116   9.132   3.251   9.260
 2715W        W10117  16.098   8.831   8.946
 2716W        W10118  18.906   8.170   9.444
 2717W        W10119   5.622   9.520   2.397
 2718W        W10120   5.669   9.060   1.181
 2719W        W10121  18.923   8.997   0.050
 2720W        W10122  14.690   8.662   0.669
 2721W        W10123   2.086   0.505   8.133
 2722W        W10124   1.696   9.634   2.000
 2723W        W10125   5.624   7.198   2.463
 2724W        W10126   7.175   5.586   8.979
 2725W        W10127  17.331   9.384   8.338
 2726W        W10128   8.439   5.819   9.600
 2727W        W10129  13.925   2.974   1.975
 2728W        W10130   2.893   0.764   8.249
 2729W        W10131  13.296   3.507   1.475
 2730W        W10132   2.239   5.130   7.633
 2731W        W10133  14.989   3.427   0.270
 2732W        W10134  16.045   3.045   1.891
 2733W        W10135   6.724   6.108   1.459
 2734W        W10136  17.985   6.729   9.383
 2735W        W10137   2.381   6.723   8.332
 2736W        W10138  12.019   1.631   0.537
 2737W        W10139   6.355   7.784   2.134
 2738W        W10140  15.761   7.100   1.545
 2739W        W10141   9.796   0.977   2.217
 2740W        W10142   1.299   3.128   8.463
 2741W        W10143   4.418   7.763   1.744
 2742W        W10144   2.429   9.758   8.751
 2743W        W10145   6.162   5.022   8.862
 2744W        W10146  10.180   3.553   2.023
 2745W        W10147   2.884   3.623   0.524
 2746W        W10148   8.494   2.707   1.292
 2747W        W10149  16.983   9.328   9.296
 2748W        W10150   2.671   1.696   7.852
 2749W        W10151  18.129   5.807   0.832
 2750W        W10152   4.431   0.782   1.584
 2751W        W10153   2.145   7.491   9.858
 2752W        W10154  13.652   1.739   9.602
 2753W        W10155   7.517   6.414   8.998
 2754W        W10156  12.510   1.481   2.160
 2755W        W10157  11.134   2.974   8.630
 2756W        W10158   1.575   2.095   1.214
 2757W        W10159   2.686   0.041   0.647
 2758W        W10160   8.798   1.267   7.971
 2759W        W10161   2.894   6.105   7.721
 2760W        W10162   9.556   9.962   8.434
 2761W        W10163  11.294   8.534   2.078
 2762W        W10164   8.180   3.904   1.847
 2763W        W10165   5.346   0.834   1.440
 2764W        W10166  13.585   2.942   0.665
 2765W        W10167  17.092   3.664   7.872
 2766W        W10168  18.974   5.082   8.060
 2767W        W10169  17.867   8.700   0.165
 2768W        W10170   5.822   0.783   1.664
 2769W        W10171   7.585   9.150   7.951
 2770W        W10172  10.410   2.200   0.076
 2771W        W10173   2.794   5.073   8.830
 2772W        W10174   5.077   8.809   8.543
 2773W        W10175   7.223   3.087   2.295
 2774W        W10176   8.958   2.147   8.798
 2775W        W10177  13.251   2.752   2.499
 2776W        W10178   4.879   8.313   8.522
 2777W        W10179   9.070   0.904   9.491
 2778W        W10180   0.728   1.953   2.252
 2779W        W10181   7.824   5.371   0.153
 2780W        W10182  13.448   8.855   1.363
 2781W        W10183  15.029   4.387   0.422
 2782W        W10184   1.600   2.005   2.139
 2783W        W10185  10.451   5.059   8.075
 2784W        W10186  16.136   5.463   1.329
 2785W        W10187  13.523   0.582   2.500
 2786W        W10188  18.193   9.363   9.686
 2787W        W10189  14.886   3.142   9.386
 2788W        W10190  10.652   5.507   1.751
 2789W        W10191  12.561   9.125   2.346
 2790W        W10192  11.618   2.060   0.691
 2791W        W10193  13.477   4.457   7.506
 2792W        W10194  18.852   5.037   1.676
 2793W        W10195  11.272   1.174   1.050
 2794W        W10196  18.216   0.226   1.160
 2795W        W10197   4.706   2.329   0.287
 2796W        W10198  16.087   7.363   0.973
 2797W        W10199   8.327   1.027   7.899
 2798W        W10200   1.252   4.942   9.311
 2799W        W10201  18.087   1.331   0.153
 2800W        W10202  19.365   7.861   7.819
 2801W        W10203   1.083   4.014   9.398
 2802W        W10204   0.533   2.441   0.058
 2803W        W10205   1.090   9.346   0.916
 2804W        W10206   0.369   4.207   7.404
 2805W        W10207   5.386   7.986   8.802
 2806W        W10208   7.556   7.336   8.976
 2807W        W10209   2.625   0.379   9.788
 2808W        W10210   8.764   3.505   8.876
 2809W        W10211   5.756   4.677   7.236
 2810W        W10212  17.126   4.827   8.589
 2811W        W10213  10.804   4.342   1.928
 2812W        W10214  17.433   2.563   9.356
 2813W        W10215   9.471   8.882   1.693
 2814W        W10216   2.801   1.161   0.577
 2815W        W10217   4.614   1.618   7.836
 2816W        W10218  11.927   3.910   9.293
 2817W        W10219   4.869   7.945   9.544
 2818W        W10220  14.178   9.763   8.474
 2819W        W10221   3.873   0.800   2.772
 2820W        W10222  13.830   3.095   8.378
 2821W        W10223  11.187   4.781   1.246
 2822W        W10224   9.938   3.255   0.848
 2823W        W10225   7.628   2.302   2.550
 2824W        W10226   8.805   5.586   8.489
 2825W        W10227   1.757   9.899   0.704
 2826W        W10228   2.527   6.273   2.189
 2827W        W10229  19.146   3.692   1.588
 2828W        W10230  18.233   9.825   7.725
 2829W        W10231   8.518   5.372   8.131
 2830W        W10232  11.176   0.535   8.043
 2831W        W10233   3.113   3.733   9.673
 2832W        W10234  10.195   3.300   0.417
 2833W        W10235   4.194   4.401   1.677
 2834W        W10236  12.407   7.366   0.269
 2835W        W10237  11.097   6.903   8.888
 2836W        W10238   1.378   4.531   1.629
 2837W        W10239  10.530   4.033   1.615
 2838W        W10240  16.751   9.058   0.178
 2839W        W10241  15.068   8.366   9.373
 2840W        W10242  14.639   7.238   9.846
 2841W        W10243  12.328   0.572   2.407
 2842W        W10244   6.248   8.939   9.922
 2843W        W10245   0.583   4.489   2.202
 2844W        W10246  14.952   5.737   0.329
 2845W        W10247  11.286   3.430   8.892
 2846W        W10248   3.267   4.976   8.673
 2847W        W10249   4.287   5.150   9.003
 2848W        W10250  12.131   7.774   1.124
 2849W        W10251  17.073   4.967   0.602
 2850W        W10252   8.838   7.015   7.904
 2851W        W10253   0.586   2.630   1.075
 2852W        W10254   7.959   5.630   8.806
 2853W        W10255   8.419   9.667   9.602
 2854W        W10256   1.763   4.844   8.372
 2855W        W10257   3.484   2.814   8.995
 2856W        W10258  17.784   7.681   9.013
 2857W        W10259   9.815   4.448   1.838
 2858W        W10260  17.313   7.455   0.175
 2859W        W10261  16.083   7.635   8.182
 2860W        W10262  10.331   7.357   8.839
 2861W        W10263  16.077   2.926   8.056
 2862W        W10264   7.089   5.632   8.474
 2863W        W10265  14.060   1.861   8.808
 2864W        W10266  10.625   7.548   8.447
 2865W        W10267  17.565   5.011   7.875
 2866W        W10268   5.811   0.868   8.607
 2867W        W10269   3.859   6.727   8.578
 2868W        W10270   6.146   0.879   0.336
 2869W        W10271   8.434   2.115   7.975
 2870W        W10272   1.147   8.427   0.726
 2871W        W10273   2.437   1.702   1.224
 2872W        W10274   8.448   3.068   8.914
 2873W        W10275  12.309   3.618   8.213
 2874W        W10276  17.766   0.736   8.647
 2875W        W10277  13.664   6.996   1.572
 2876W        W10278   5.079   9.402   1.545
 2877W        W10279  13.032   3.628   2.325
 2878W        W10280   5.232   7.298   1.592
 2879W        W10281  19.813   1.557   9.534
 2880W        W10282  16.174   2.087   8.261
 2881W        W10283  11.595   5.219   8.409
 2882W        W10284  14.734   3.367   9.811
 2883W        W10285   0.907   4.918   0.948
 2884W        W10286   3.399   8.754   9.463
 2885W        W10287  17.066   8.350   1.856
 2886W        W10288   0.753   5.003   9.450
 2887W        W10289  15.545   0.441   2.464
 2888W        W10290   7.522   6.940   0.289
 2889W        W10291  16.361   9.459   8.938
 2890W        W10292   3.129   5.102   9.223
 2891W        W10293  11.050   7.289   0.571
 2892W        W10294  19.126   6.984   7.647
 2893W        W10295  10.795   3.083   7.204
 2894W        W10296  10.817   1.165   0.817
 2895W        W10297   9.799   2.869   2.207
 2896W        W10298   3.858   0.091   2.285
 2897W        W10299   7.856   7.759   1.397
 2898W        W10300  14.653   3.210   8.505
 2899W        W10301  16.272   5.100   9.595
 2900W        W10302  18.908   8.538   2.261
 2901W        W10303   9.681   5.416   1.548
 2902W        W10304   2.063   8.351   0.815
 2903W        W10305  15.881   3.215   9.124
 2904W        W10306   6.911   4.234   9.101
 2905W        W10307  19.901   2.485   2.368
 2906W        W10308   5.247   3.278   9.789
 2907W        W10309  19.714   6.388   0.314
 2908W        W10310   5.971   8.083   1.569
 2909W        W10311  12.014   4.403   8.595
 2910W        W10312  15.063   4.213   9.936
 2911W        W10313   1.454   3.326   0.256
 2912W        W10314   5.901   3.760   9.219
 2913W        W10315  10.952   7.479   1.454
 2914W        W10316  17.159   2.094   9.287
 2915W        W10317  11.098   1.578   8.862
 2916W        W10318  14.614   6.479   9.210
 2917W        W10319  19.762   8.785   1.640
 2918W        W10320  11.098   7.449   9.319
 2919W        W10321  16.922   9.080   0.702
 2920W        W10322  14.137   7.166   9.775
 2921W        W10323   9.097   3.947   0.667
 2922W        W10324   4.704   7.105   8.965
 2923W        W10325  13.997   3.813   9.232
 2924W        W10326  15.603   9.336   7.705
 2925W        W10327   8.999   0.236   9.186
 2926W        W10328   2.115   2.612   9.323
 2927W        W10329  17.211   1.659   2.499
 2928W        W10330   9.479   6.238   1.991
 2929W        W10331  19.736   0.670   9.405
 2930W        W10332   7.861   8.737   1.017
 2931W        W10333   1.644   2.578   9.506
 2932W        W10334  13.896   8.062   7.987
 2933W        W10335  13.509   2.088   0.511
 2934W        W10336  17.943   7.942   8.048
 2935W        W10337   7.148   8.460   9.740
 2936W        W10338  15.648   6.422   8.124
 2937W        W10339   9.811   5.797   0.642
 2938W        W10340   0.590   4.131   9.429
 2939W        W10341  11.420   6.007   7.889
 2940W        W10342  10.480   5.395   8.464
 2941W        W10343  15.983   3.024   8.634
 2942W        W10344  18.744   4.010   1.587
 2943W        W10345  16.588   0.007   0.559
 2944W        W10346  10.404   8.850   9.429
 2945W        W10347   0.270   7.260   0.066
 2946W        W10348  12.474   8.570   7.998
 2947W        W10349   1.607   5.416   0.682
 2948W        W10350   0.756   7.467   0.028
 2949W        W10351   9.611   8.342   2.434
 2950W        W10352  11.566   9.783   1.592
 2951W        W10353  12.302   2.641   1.482
 2952W        W10354  12.907   2.241   2.295
 2953W        W10355  10.257   4.696   9.810
 2954W        W10356   1.515   5.375   9.123
 2955W        W10357   8.114   4.644   9.363
 2956W        W10358   6.847   1.090   0.131
 2957W        W10359   8.256   3.555   8.959
 2958W        W10360  12.427   7.295   9.767
 2959W        W10361   4.191   9.940   1.661
 2960W        W10362   6.748   1.931   2.078
 2961W        W10363  16.843   0.846   8.171
 2962W        W10364  19.979   8.828   9.850
 2963W        W10365   7.304   5.532   1.202
 2964W        W10366  17.914   5.721   9.338
 2965W        W10367  11.823   6.003   0.292
 2966W        W10368   4.153   1.867   8.863
 2967W        W10369   2.536   5.976   0.992
 2968W        W10370   1.139   5.550   9.862
 2969W        W10371  14.551   5.465   1.130
 2970W        W10372  14.302   2.338   7.608
 2971W        W10373   2.868   8.317   1.999
 2972W        W10374   4.625   9.117   1.662
 2973W        W10375  17.837   1.139   1.058
 2974W        W10376  15.404   3.990   2.140
 2975W        W10377   6.200   8.488   0.658
 2976W        W10378   7.500   5.096   0.427
 2977W        W10379  17.744   6.841   9.833
 2978W        W10380  19.116   7.036   9.977
 2979W        W10381   4.771   2.140   1.873
 2980W        W10382   9.894   0.271   8.167
 2981W        W10383  14.956   6.932   9.558
 2982W        W10384   5.399   1.736   1.430
 2983W        W10385   7.069   9.767   8.459
 2984W        W10386  14.192   5.592   1.484
 2985W        W10387  18.739   7.917   1.941
 2986W        W10388   1.288   5.818   1.075
 2987W        W10389   1.510   5.046   2.161
 2988W        W10390   5.260   0.622   0.454
 2989W        W10391   7.666   7.416   1.028
 2990W        W10392  15.419   5.293   7.749
 2991W        W10393  17.525   3.198   2.122
 2992W        W10394   6.550   6.714   0.587
 2993W        W10395   2.299   4.450   1.816
 2994W        W10396  11.107   0.730   0.828
 2995W        W10397  12.001   8.766   8.636
 2996W        W10398  18.299   8.040   0.683
 2997W        W10399  11.111   3.305   0.409
 2998W        W10400   0.018   1.461   0.047
 2999W        W10401  13.276   4.008   1.363
 3000W        W10402   8.835   6.983   8.921
 3001W        W10403  13.839   8.072   9.991
 3002W        W10404   5.472   4.406   2.242
 3003W        W10405   7.616   7.364   0.003
 3004W        W10406  13.538   2.380   1.249
 3005W        W10407   6.979   3.953   8.124
 3006W        W10408   7.506   5.755   7.822
 3007W        W10409   6.924   6.225   7.889
 3008W        W10410   1.776   5.852   0.924
 3009W        W10411  11.547   6.820   7.938
 3010W        W10412   1.545   9.124   2.427
 3011W        W10413   9.685   5.554   9.843
 3012W        W10414   4.908   4.847   7.731
 3013W        W10415  19.873   0.300   8.545
 3014W        W10416  10.107   1.601   9.036
 3015W        W10417  18.034   7.225   0.639
 3016W        W10418   2.781   4.096   0.686
 3017W        W10419   6.095   4.992   0.408
 3018W        W10420  11.417   3.825   9.190
 3019W        W10421   1.372   5.149   8.218
 3020W        W10422  14.697   0.894   0.588
 3021W        W10423  12.305   2.549   8.105
 3022W        W10424  15.670   1.677   9.812
 3023W        W10425  17.689   7.026   2.117
 3024W        W10426   2.587   1.691   9.936
 3025W        W10427   2.222   6.103   1.799
 3026W        W10428   7.555   8.701   7.678
 3027W        W10429  12.232   1.131   7.673
 3028W        W10430  18.271   3.478   9.550
 3029W        W10431  11.044   5.986   9.812
 3030W        W10432  17.459   8.635   8.884
 3031W        W10433   0.001   6.245   2.496
 3032W        W10434  13.643   7.162   9.638
 3033W        W10435   7.616   2.502   8.683
 3034W        W10436  15.665   8.280   9.512
 3035W        W10437  16.907   4.454   1.825
 3036W        W10438  12.928   4.755   8.317
 3037W        W10439   4.738   5.000   0.386
 3038W        W10440  18.728   2.469   7.811
 3039W        W10441  11.401   4.766   8.253
 3040W        W10442  16.803   3.791   0.096
 3041W        W10443  12.105   6.474   9.241
 3042W        W10444   9.837   2.008   2.405
 3043W        W10445  16.024   6.486   9.074
 3044W        W10446   8.428   8.879   1.829
 3045W        W10447  10.395   9.350   0.121
 3046W        W10448   7.128   2.633   1.063
 3047W        W10449  16.949   0.799   1.122
 3048W        W10450   5.602   1.236   1.790
 3049W        W10451   9.926   3.509   9.644
 3050W        W10452  10.365   3.483   7.682
 3051W        W10453  17.581   6.202   8.039
 3052W        W10454  12.600   2.144   9.342
 3053W        W10455  14.615   7.352   2.333
 3054W        W10456   0.394   5.036   8.356
 3055W        W10457   8.210   3.933   7.801
 3056W        W10458   6.698   8.375   0.505
 3057W        W10459  11.254   6.358   1.469
 3058W        W10460  15.656   7.353   8.400
 3059W        W10461   7.438   2.038   8.800
 3060W        W10462  10.298   7.564   0.188
 3061W        W10463   0.313   1.076   9.834
 3062W        W10464   3.301   5.655   0.560
 3063W        W10465   8.926   1.328   9.773
 3064W        W10466  12.215   3.488   9.251
 3065W        W10467   9.433   0.204   0.541
 3066W        W10468  17.250   2.670   7.618
 3067W        W10469   1.504   4.627   9.757
 3068W        W10470  18.341   6.389   9.583
 3069W        W10471   8.678   9.312   1.769
 3070W        W10472   1.112   1.751   9.129
 3071W        W10473  12.334   0.307   1.884
 3072W        W10474   7.338   3.988   1.680
 3073W        W10475   0.906   0.599   0.262
 3074W        W10476   4.111   6.211   2.257
 3075W        W10477   2.296   1.311   9.508
 3076W        W10478   7.945   9.275   1.213
 3077W        W10479  15.563   5.396   1.024
 3078W        W10480   1.062   2.304   1.200
 3079W        W10481   3.349   4.178   9.791
 3080W        W10482  18.425   4.864   0.871
 3081W        W10483  11.826   5.587   9.677
 3082W        W10484  19.911   3.214   7.914
 3083W        W10485   9.758   7.809   2.788
 3084W        W10486  19.727   2.881   1.592
 3085W        W10487   5.785   0.818   1.159
 3086W        W10488  11.554   4.253   9.456
 3087W        W10489   5.043   5.522   8.682
 3088W        W10490  15.825   7.954   1.908
 3089W        W10491   5.089   9.408   7.277
 3090W        W10492  16.122   3.217   0.332
 3091W        W10493  10.903   8.260   8.947
 3092W        W10494   7.160   6.024   1.203
 3093W        W10495  12.065   9.629   9.820
 3094W        W10496   6.728   4.682   1.308
 3095W        W10497  11.619   7.718   9.794
 3096W        W10498  12.533   4.687   9.208
 3097W        W10499  11.713   8.688   0.058
 3098W        W10500   7.425   9.245   1.192
 3099W        W10501  18.298   3.791   1.658
 3100W        W10502   2.184   0.112   8.462
 3101W        W10503  12.158   7.392   9.332
 3102W        W10504   9.369   8.913   9.345
 3103W        W10505  12.614   6.165   1.597
 3104W        W10506  11.826   8.079   2.066
 3105W        W10507  16.668   0.847   0.698
 3106W        W10508  18.727   0.925   0.710
 3107W        W10509   5.334   5.181   9.915
 3108W        W10510   1.537   6.566   7.297
 3109W        W10511   0.305   9.192   1.654
 3110W        W10512   1.311   4.540   2.180
 3111W        W10513   5.774   8.874   0.155
 3112W        W10514   8.371   9.382   2.178
 3113W        W10515  10.302   6.550   1.793
 3114W        W10516  15.464   9.226   0.517
 3115W        W10517  18.817   0.965   9.950
 3116W        W10518  12.258   1.254   0.822
 3117W        W10519   4.818   3.929   1.638
 3118W        W10520  19.781   8.418   9.559
 3119W        W10521  13.942   2.267   2.508
 3120W        W10522   8.409   8.716   7.612
 3121W        W10523  14.131   7.857   1.426
 3122W        W10524  19.987   4.974   8.003
 3123W        W10525  17.931   2.161   7.920
 3124W        W10526   2.177   3.565   8.957
 3125W        W10527   8.493   4.038   1.006
 3126W        W10528  16.906   7.648   0.450
 3127W        W10529   2.780   6.154   1.732
 3128W        W10530   9.785   6.314   0.619
 3129W        W10531   9.477   3.212   9.634
 3130W        W10532   5.926   9.290   9.324
 3131W        W10533  15.379   6.047   0.300
 3132W        W10534  15.220   9.241   9.686
 3133W        W10535   4.073   7.557   9.341
 3134W        W10536   5.821   2.192   0.393
 3135W        W10537  13.357   0.734   1.625
 3136W        W10538   0.685   2.017   0.394
 3137W        W10539   6.143   9.905   1.208
 3138W        W10540   7.670   6.072   1.198
 3139W        W10541  10.581   4.441   8.496
 3140W        W10542   5.848   9.990   8.116
 3141W        W10543   9.470   7.097   1.490
 3142W        W10544   5.923   7.359   8.597
 3143W        W10545   6.428   3.069   9.506
 3144W        W10546   5.668   9.653   8.517
 3145W        W10547  18.441   4.946   1.379
 3146W        W10548  15.395   6.188   7.529
 3147W        W10549  11.313   5.547   8.720
 3148W        W10550   3.020   2.062   9.352
 3149W        W10551  10.553   0.303   1.374
 3150W        W10552  10.778   6.444   0.569
 3151W        W10553  17.216   1.151   9.369
 3152W        W10554  17.707   7.644   0.491
 3153W        W10555   6.854   3.108   7.985
 3154W        W10556  10.240   9.313   8.208
 3155W        W10557  19.371   2.764   2.305
 3156W        W10558  16.976   2.146   0.293
 3157W        W10559   7.432   9.753   8.849
 3158W        W10560  18.641   9.690   2.046
 3159W        W10561   1.981   5.100   1.179
 3160W        W10562  15.705   2.972   0.098
 3161W        W10563   0.861   9.979   9.633
 3162W        W10564  11.616   3.186   7.811
 3163W        W10565   2.431   3.731   7.841
 3164W        W10566  11.720   8.336   8.378
 3165W        W10567   9.886   1.336   1.863
 3166W        W10568  13.136   9.694   8.887
 3167W        W10569  12.251   1.203   0.308
 3168W        W10570  10.641   5.839   2.193
 3169W        W10571  17.748   4.182   9.986
 3170W        W10572   6.281   2.314   0.616
 3171W        W10573  19.774   7.562   7.842
 3172W        W10574   4.024   1.122   7.785
 3173W        W10575   9.577   4.553   8.425
 3174W        W10576   9.687   8.853   1.183
 3175W        W10577  18.961   9.757   1.081
 3176W        W10578  13.210   7.035   7.711
 3177W        W10579   7.118   8.515   0.786
 3178W        W10580   7.321   0.869   0.124
 3179W        W10581  15.231   8.770   1.516
 3180W        W10582   0.708   1.061   0.185
 3181W        W10583   8.163   2.181   8.387
 3182W        W10584   3.413   9.913   9.955
 3183W        W10585  11.074   0.702   0.299
 3184W        W10586   8.933   3.985   9.676
 3185W        W10587   7.128   7.505   8.726
 3186W        W10588  16.696   1.623   7.690
 3187W        W10589  11.253   1.124   0.525
 3188W        W10590   1.024   9.786   1.421
 3189W        W10591   9.977   2.785   8.297
 3190W        W10592   3.616   2.116   9.349
 3191W        W10593   8.128   3.911   1.341
 3192W        W10594   3.581   6.057   8.105
 3193W        W10595  14.835   2.499   8.683
 3194W        W10596  18.219   2.286   1.359
 3195W        W10597   9.426   2.918   2.564
 3196W        W10598  15.820   1.657   0.299
 3197W        W10599   2.007   3.704   7.521
 3198W        W10600  12.400   9.496   0.239
 3199W        W10601   2.819   4.077   1.572
 3200W        W10602  12.161   7.849   0.284
 3201W        W10603  14.121   3.846   1.631
 3202W        W10604  18.123   2.856   2.071
 3203W        W10605   3.365   6.902   1.486
 3204W        W10606  10.785   3.075   1.986
 3205W        W10607  19.813   1.118   7.677
 3206W        W10608   2.458   8.776   8.457
 3207W        W10609  12.532   0.408   8.676
 3208W        W10610   6.670   7.272   7.919
 3209W        W10611  12.553   3.236   9.525
 3210W        W10612  19.715   1.557   8.484
 3211W        W10613   4.126   2.278   1.247
 3212W        W10614  17.779   7.827   1.771
 3213W        W10615   6.663   9.886   1.280
 3214W        W10616   8.657   6.398   1.504
 3215W        W10617  17.010   5.699   8.409
 3216W        W10618  16.565   7.103   7.492
 3217W        W10619  13.701   8.440   0.710
 3218W        W10620  16.934   2.233   2.290
 3219W        W10621  12.706   5.522   8.719
 3220W        W10622   1.898   0.408   2.128
 3221W        W10623  14.364   6.201   0.107
 3222W        W10624   0.197   1.773   9.172
 3223W        W10625  18.039   1.176   9.518
 3224W        W10626  15.223   2.083   7.941
 3225W        W10627   2.988   5.545   9.474
 3226W        W10628  12.930   9.797   7.911
 3227W        W10629  17.398   2.287   1.146
 3228W        W10630   9.426   5.627   8.349
 3229W        W10631  12.903   0.721   9.313
 3230W        W10632   4.714   3.206   0.336
 3231W        W10633  14.831   1.282   0.927
 3232W        W10634  11.520   4.015   8.021
 3233W        W10635   9.860   0.239   9.184
 3234W        W10636   9.361   6.781   1.901
 3235W        W10637  16.520   9.509   9.424
 3236W        W10638  13.227   0.369   0.831
 3237W        W10639   0.320   7.014   7.495
 3238W        W10640   5.315   3.339   8.719
 3239W        W10641  10.135   2.305   0.999
 3240W        W10642   1.093   1.405   0.011
 3241W        W10643   1.445   6.436   9.254
 3242W        W10644   1.403   6.057   8.037
 3243W        W10645   6.958   3.309   2.717
 3244W        W10646   5.145   1.293   1.571
 3245W        W10647   1.360   9.889   1.044
 3246W        W10648  13.100   7.872   0.559
 3247W        W10649   8.101   3.033   1.254
 3248W        W10650  17.850   5.438   0.311
 3249W        W10651   4.430   7.952   9.114
 3250W        W10652  16.342   1.109   1.799
 3251W        W10653   2.960   6.260   1.136
 3252W        W10654   8.010   0.688   1.990
 3253W        W10655   3.780   5.613   9.807
 3254W        W10656   3.377   3.978   1.561
 3255W        W10657   1.352   5.042   8.723
 3256W        W10658   9.225   1.800   9.053
 3257W        W10659   4.996   9.127   8.144
 3258W        W10660  16.686   2.692   2.344
 3259W        W10661  10.736   9.194   1.802
 3260W        W10662   6.048   3.292   2.587
 3261W        W10663  10.248   6.023   0.133
 3262W        W10664  18.333   3.906   9.254
 3263W        W10665   8.428   5.383   8.780
 3264W        W10666  19.832   8.891   0.611
 3265W        W10667  18.036   5.944   7.972
 3266W        W10668   2.087   4.667   7.503
 3267W        W10669   2.546   8.952   0.163
 3268W        W10670   9.604   8.504   8.459
 3269W        W10671  12.178   4.335   2.370
 3270W        W10672  17.495   1.204   8.693
 3271W        W10673  19.861   2.075   8.869
 3272W        W10674   2.103   0.580   8.631
 3273W        W10675  11.601   3.405   9.428
 3274W        W10676  15.367   5.469   8.229
 3275W        W10677   9.292   7.147   9.426
 3276W        W10678   0.334   8.922   0.786
 3277W        W10679   3.210   9.342   1.570
 3278W        W10680  16.228   6.771   8.661
 3279W        W10681   1.837   0.943   8.846
 3280W        W10682   6.562   8.927   1.207
 3281W        W10683   8.161   3.519   1.038
 3282W        W10684  15.739   4.539   8.832
 3283W        W10685   2.076   6.935   1.571
 3284W        W10686  17.621   3.846   9.636
 3285W        W10687   6.787   3.327   9.256
 3286W        W10688   4.784   5.068   9.073
 3287W        W10689   0.426   4.911   1.173
 3288W        W10690  19.328   8.278   2.070
 3289W        W10691  14.970   2.029   8.822
 3290W        W10692   0.512   1.087   8.866
 3291W        W10693  18.315   7.177   9.013
 3292W        W10694   3.661   1.761   9.778
 3293W        W10695  14.785   9.882   1.000
 3294W        W10696  12.932   0.710   8.295
 3295W        W10697  18.754   1.692   2.354
 3296W        W10698  13.322   4.414   0.281
 3297W        W10699   3.394   4.504   8.504
 3298W        W10700   8.435   6.525   2.026
 3299W        W10701  11.153   3.158   7.593
 3300W        W10702  14.157   1.160   0.176
 3301W        W10703   3.114   0.335   0.755
 3302W        W10704  19.916   9.232   0.221
 3303W        W10705  11.979   3.607   1.768
 3304W        W10706   9.343   4.383   8.004
 3305W        W10707  11.074   1.998   8.418
 3306W        W10708  10.356   3.179   1.140
 3307W        W10709  14.377   9.729   2.164
 3308W        W10710  15.387   3.853   7.778
 3309W        W10711  11.803   4.691   9.928
 3310W        W10712   7.375   0.625   9.665
 3311W        W10713  18.921   5.842   1.288
 3312W        W10714  11.562   9.071   7.971
 3313W        W10715  12.018   8.657   9.644
 3314W        W10716   9.911   9.146   1.561
 3315W        W10717   8.788   9.553   7.802
 3316W        W10718  15.133   4.975   0.919
 3317W        W10719  18.379   3.745   2.206
 3318W        W10720  18.357   9.931   0.673
 3319W        W10721   2.209   0.378   1.307
 3320W        W10722  14.994   5.459   9.898
 3321W        W10723   9.662   2.202   0.769
 3322W        W10724   8.661   3.554   8.035
 3323W        W10725  11.568   6.438   0.136
 3324W        W10726   6.717   7.595   1.818
 3325W        W10727  13.938   5.901   0.201
 3326W        W10728  11.588   6.849   9.809
 3327W        W10729   2.080   1.797   8.718
 3328W        W10730   1.572   4.728   7.872
 3329W        W10731  13.910   1.269   9.612
 3330W        W10732   0.423   2.392   2.258
 3331W        W10733   9.520   6.120   8.181
 3332W        W10734  18.759   7.299   9.288
 3333W        W10735  12.728   6.983   0.085
 3334W        W10736   2.795   6.340   8.567
 3335W        W10737   3.454   0.626   1.089
 3336W        W10738  11.301   8.010   2.015
 3337W        W10739  11.552   9.895   0.561
 3338W        W10740   7.316   6.019   8.220
 3339W        W10741  18.072   9.317   7.807
 3340W        W10742  16.054   0.143   1.785
 3341W        W10743   4.959   9.431   9.299
 3342W        W10744  12.635   0.192   7.778
 3343W        W10745  14.613   9.216   7.972
 3344W        W10746   4.832   5.372   0.721
 3345W        W10747  13.692   5.808   7.488
 3346W        W10748  13.841   7.146   0.205
 3347W        W10749  18.093   6.088   1.835
 3348W        W10750   6.423   8.613   8.621
 3349W        W10751  15.404   7.087   9.749
 3350W        W10752   9.975   1.133   9.231
 3351W        W10753  10.016   6.588   9.271
 3352W        W10754  19.430   8.346   7.641
 3353W        W10755   1.849   7.458   8.143
 3354W        W10756  10.888   4.732   8.101
 3355W        W10757  19.155   9.222   9.679
 3356W        W10758   9.404   4.866   1.041
 3357W        W10759   6.600   8.830   0.714
 3358W        W10760  12.129   3.102   1.165
 3359W        W10761  19.675   6.241   7.607
 3360W        W10762   3.394   3.478   1.389
 3361W        W10763  10.493   5.640   9.275
 3362W        W10764   2.962   3.168   1.676
 3363W        W10765  15.855   6.835   9.441
 3364W        W10766  14.813   5.022   9.677
 3365W        W10767  18.770   4.565   1.864
 3366W        W10768   7.618   6.518   0.544
 3367W        W10769   7.519   5.915   8.721
 3368W        W10770  17.261   7.722   9.721
 3369W        W10771  16.658   8.404   9.699
 3370W        W10772   0.985   0.818   8.918
 3371W        W10773   4.226   0.794   9.038
 3372W        W10774  17.165   7.933   7.726
 3373W        W10775   5.590   7.542   8.945
 3374W        W10776  15.954   4.967   8.621
 3375W        W10777  19.343   5.109   9.893
 3376W        W10778   9.187   1.704   8.017
 3377W        W10779  12.350   3.757   7.729
 3378W        W10780   7.993   7.928   8.427
 3379W        W10781  15.332   7.079   1.838
 3380W        W10782   5.334   2.114   2.215
 3381W        W10783   6.698   4.674   0.370
 3382W        W10784   1.341   9.629   2.392
 3383W        W10785  16.825   1.128   1.913
 3384W        W10786   7.842   9.209   0.718
 3385W        W10787  19.471   0.548   0.318
 3386W        W10788   0.912   4.534   9.372
 3387W        W10789   8.199   0.688   1.004
 3388W        W10790   3.077   2.807   2.434
 3389W        W10791  15.636   3.700   1.061
 3390W        W10792   7.180   2.552   1.551
 3391W        W10793  12.405   6.578   2.316
 3392W        W10794  15.003   1.238   7.660
 3393W        W10795   4.794   0.107   2.299
 3394W        W10796  17.086   4.019   0.495
 3395W        W10797  12.538   6.942   1.518
 3396W        W10798   1.164   1.046   0.428
 3397W        W10799  17.957   0.150   9.722
 3398W        W10800   8.682   3.075   0.542
 3399W        W10801   0.318   1.292   9.339
 3400W        W10802   2.748   1.354   8.672
 3401W        W10803  17.949   4.031   1.314
 3402W        W10804  16.211   2.295   9.251
 3403W        W10805  14.144   8.673   0.700
 3404W        W10806   1.741   0.396   0.972
 3405W        W10807   8.456   2.124   8.804
 3406W        W10808   6.378   3.224   1.593
 3407W        W10809  17.595   0.489   9.868
 3408W        W10810  19.318   0.987   9.994
 3409W        W10811   0.141   0.706   7.645
 3410W        W10812  10.943   4.292   1.414
 3411W        W10813  16.842   7.875   2.009
 3412W        W10814   0.979   3.178   0.176
 3413W        W10815   9.305   2.767   9.345
 3414W        W10816  11.509   0.554   7.640
 3415W        W10817  18.886   4.838   1.139
 3416W        W10818  14.849   4.875   0.514
 3417W        W10819   6.855   2.226   7.881
 3418W        W10820   1.218   3.727   1.005
 3419W        W10821   0.292   7.346   1.174
 3420W        W10822  11.680   4.445   2.301
 3421W        W10823   9.459   5.184   9.525
 3422W        W10824  10.937   9.523   9.338
 3423W        W10825  16.856   1.661   8.171
 3424W        W10826  18.739   6.363   1.329
 3425W        W10827   5.888   2.623   0.654
 3426W        W10828   7.458   4.314   8.139
 3427W        W10829   2.904   5.477   8.466
 3428W        W10830   2.949   3.439   0.060
 3429W        W10831   5.395   3.968   8.129
 3430W        W10832   1.907   6.830   8.500
 3431W        W10833  16.462   2.046   1.543
 3432W        W10834   9.815   9.385   8.487
 3433W        W10835   4.201   6.396   8.855
 3434W        W10836   9.533   8.341   1.916
 3435W        W10837   8.409   8.233   7.877
 3436W        W10838  17.735   8.451   8.446
 3437W        W10839  10.414   7.078   8.408
 3438W        W10840   9.696   7.408   2.311
 3439W        W10841  16.642   8.985   1.144
 3440W        W10842  13.209   1.197   0.839
 3441W        W10843  10.912   8.934   2.228
 3442W        W10844  19.287   9.990   1.578
 3443W        W10845  10.583   3.344   9.143
 3444W        W10846  14.408   3.754   2.136
 3445W        W10847  18.356   0.444   9.942
 3446W        W10848  15.314   7.676   8.164
 3447W        W10849  10.810   2.052   8.855
 3448W        W10850  18.428   6.302   7.959
 3449W        W10851  16.262   2.952   1.422
 3450W        W10852  10.520   0.968   2.142
 3451W        W10853   2.588   1.853   8.761
 3452W        W10854   2.485   6.684   0.305
 3453W        W10855  15.847   7.789   8.634
 3454W        W10856  17.846   3.690   0.067
 3455W        W10857   3.436   3.534   0.202
 3456W        W10858   1.584   1.116   0.146
 3457W        W10859  17.123   0.891   1.579
 3458W        W10860  11.537   4.881   2.035
 3459W        W10861  18.476   5.058   8.341
 3460W        W10862   3.028   7.630   0.219
 3461W        W10863  18.331   8.567   9.323
 3462W        W10864  15.826   5.300   9.898
 3463W        W10865  16.951   2.589   1.896
 3464W        W10866  19.640   0.710   8.380
 3465W        W10867   5.090   9.336   0.632
 3466W        W10868   5.300   0.704   0.952
 3467W        W10869   4.681   8.346   2.383
 3468W        W10870  18.271   6.333   2.260
 3469W        W10871  17.802   1.778   0.283
 3470W        W10872   7.286   3.113   1.140
 3471W        W10873  10.227   2.798   0.236
 3472W        W10874   4.090   2.860   9.732
 3473W        W10875  19.095   9.515   0.153
 3474W        W10876   7.168   8.454   8.712
 3475W        W10877   7.605   2.710   1.251
 3476W        W10878   8.003   1.177   1.859
 3477W        W10879  18.734   2.629   9.922
 3478W        W10880  12.514   1.740   0.686
 3479W        W10881  16.561   9.937   1.081
 3480W        W10882  14.661   1.420   0.473
 3481W        W10883   5.752   6.062   1.256
 3482W        W10884  12.027   0.465   8.849
 3483W        W10885  15.643   7.422   8.937
 3484W        W10886   8.895   4.713   9.116
 3485W        W10887  12.813   1.352   8.406
 3486W        W10888  14.369   5.570   9.279
 3487W        W10889  10.720   3.077   8.307
 3488W        W10890  16.988   4.954   2.018
 3489W        W10891   7.310   3.596   0.933
 3490W        W10892  17.583   1.316   0.251
 3491W        W10893   8.485   8.681   8.131
 3492W        W10894   6.302   8.162   2.455
 3493W        W10895  11.628   8.681   1.320
 3494W        W10896  12.453   0.554   8.163
 3495W        W10897   6.484   1.468   9.379
 3496W        W10898   9.456   7.281   0.820
 3497W        W10899  11.945   4.063   1.507
 3498W        W10900   7.642   2.731   2.282
 3499W        W10901   5.725   4.986   1.726
 3500W        W10902  19.279   3.759   8.253
 3501W        W10903  10.554   0.477   2.311
 3502W        W10904  16.028   2.773   7.512
 3503W        W10905  12.920   7.416   0.304
 3504W        W10906   6.164   4.929   1.976
 3505W        W10907  12.998   2.236   1.790
 3506W        W10908   8.771   9.982   8.547
 3507W        W10909  18.220   7.850   2.049
 3508W        W10910   1.585   4.383   8.282
 3509W        W10911   6.140   9.479   1.513
 3510W        W10912  12.430   3.030   9.020
 3511W        W10913  19.896   9.548   7.480
 3512W        W10914  11.226   2.975   1.443
 3513W        W10915  17.263   5.293   8.186
 3514W        W10916   7.942   6.544   7.671
 3515W        W10917  12.390   5.254   2.013
 3516W        W10918  15.284   2.153   8.434
 3517W        W10919  19.259   7.262   9.511
 3518W        W10920   5.148   5.114   8.383
 3519W        W10921   8.964   8.396   0.710
 3520W        W10922   2.899   9.582   7.444
 3521W        W10923   7.659   9.193   9.814
 3522W        W10924   0.609   4.469   8.526
 3523W        W10925  14.800   1.886   0.748
 3524W        W10926   7.187   3.511   7.840
 3525W        W10927  10.063   8.022   0.155
 3526W        W10928  14.372   8.329   1.301
 3527W        W10929   8.453   4.986   1.076
 3528W        W10930   9.053   3.012   2.907
 3529W        W10931  14.858   6.182   7.611
 3530W        W10932   6.161   3.685   8.663
 3531W        W10933  14.199   8.426   9.834
 3532W        W10934   2.344   1.611   2.367
 3533W        W10935   9.661   6.830   0.677
 3534W        W10936  10.809   1.158   0.209
 3535W        W10937   1.491   6.871   0.356
 3536W        W10938  10.052   7.770   2.378
 3537W        W10939   7.067   0.220   9.635
 3538W        W10940   2.685   9.454   9.572
 3539W        W10941   0.588   0.944   2.106
 3540W        W10942  14.460   6.167   7.928
 3541W        W10943   5.267   0.238   0.109
 3542W        W10944   9.048   3.933   8.007
 3543W        W10945   1.154   4.698   0.191
 3544W        W10946  10.838   3.537   7.496
 3545W        W10947  17.215   5.856   0.866
 3546W        W10948   1.397   2.554   1.478
 3547W        W10949   1.123   8.703   2.305
 3548W        W10950   4.505   9.036   0.110
 3549W        W10951  16.926   3.678   9.219
 3550W        W10952  15.253   6.730   1.461
 3551W        W10953  18.377   4.386   9.565
 3552W        W10954   0.169   5.270   1.784
 3553W        W10955   6.457   9.867   0.793
 3554W        W10956  10.629   3.984   1.078
 3555W        W10957   2.620   0.472   8.591
 3556W        W10958   9.385   7.575   1.292
 3557W        W10959   2.573   2.616   9.835
 3558W        W10960  18.967   2.858   7.565
 3559W        W10961   5.704   8.420   9.878
 3560W        W10962  17.949   5.165   2.120
 3561W        W10963  12.361   3.506   2.553
 3562W        W10964   1.752   2.316   1.742
 3563W        W10965  11.653   1.044   7.584
 3564W        W10966  15.210   8.192   0.702
 3565W        W10967  19.945   9.108   2.002
 3566W        W10968  13.332   9.918   0.578
 3567W        W10969  17.337   4.104   2.298
 3568W        W10970   8.970   3.535   2.083
 3569W        W10971   4.609   1.101   0.909
 3570W        W10972   4.875   4.583   9.225
 3571W        W10973   5.042   7.466   1.079
 3572W        W10974  12.714   2.708   9.618
 3573W        W10975   7.702   9.700   0.664
 3574W        W10976   3.124   4.193   8.175
 3575W        W10977  14.166   9.255   8.193
 3576W        W10978  17.969   0.327   1.636
 3577W        W10979  11.342   1.920   9.795
 3578W        W10980   4.512   4.686   8.848
 3579W        W10981   6.746   7.420   9.551
 3580W        W10982  12.470   3.352   1.492
 3581W        W10983  18.680   3.297   7.563
 3582W        W10984  18.202   6.924   2.076
 3583W        W10985  17.458   3.047   0.351
 3584W        W10986   9.964   6.436   7.927
 3585W        W10987   0.266   1.996   7.912
 3586W        W10988  17.284   0.775   7.884
 3587W        W10989  17.458   4.426   9.103
 3588W        W10990  17.352   3.122   8.547
 3589W        W10991   9.597   8.929   0.306
 3590W        W10992   3.479   2.146   8.502
 3591W        W10993  13.382   9.831   1.582
 3592W        W10994   7.498   6.411   7.954
 3593W        W10995   9.883   2.902   2.775
 3594W        W10996   2.862   9.011   9.764
 3595W        W10997   8.962   3.037   8.846
 3596W        W10998  15.005   4.897   7.690
 3597W        W10999  16.503   2.042   1.003
 3598W        W11000   2.967   4.022   2.057
 3599W        W11001  12.478   7.775   9.422
 3600W        W11002  14.027   7.700   0.912
 3601W        W11003  13.867   3.342   9.916
 3602W        W11004  18.418   8.740   1.215
 3603W        W11005  12.859   4.273   8.229
 3604W        W11006  13.796   4.944   8.263
 3605W        W11007   8.441   9.757   1.723
 3606W        W11008   6.534   2.814   1.901
 3607W        W11009  11.609   9.092   8.837
 3608W        W11010  14.468   8.375   1.832
 3609W        W11011  17.766   9.169   9.481
 3610W        W11012  12.132   9.948   8.879
 3611W        W11013  18.303   1.801   0.123
 3612W        W11014   1.410   0.610   0.274
 3613W        W11015   1.959   0.823   1.199
 3614W        W11016   1.225   2.065   1.622
 3615W        W11017  17.367   6.556   1.535
 3616W        W11018   5.760   9.121   0.630
 3617W        W11019   0.613   8.291   7.963
 3618W        W11020   4.848   8.725   0.424
 3619W        W11021  16.147   2.650   2.236
 3620W        W11022  10.885   9.968   9.100
 3621W        W11023   5.703   1.745   9.641
 3622W        W11024  10.532   9.331   9.607
 3623W        W11025  11.728   7.144   7.582
 3624W        W11026  10.779   4.829   2.084
 3625W        W11027  18.370   6.372   9.079
 3626W        W11028   8.378   6.400   7.869
 3627W        W11029   9.504   3.641   8.404
 3628W        W11030   7.537   6.883   9.250
 3629W        W11031   7.708   0.232   7.983
 3630W        W11032   2.699   1.572   1.656
 3631W        W11033   8.609   5.997   8.099
 3632W        W11034  10.272   3.030   2.083
 3633W        W11035  18.606   3.089   9.658
 3634W        W11036   5.667   4.996   0.684
 3635W        W11037   0.860   8.267   2.255
 3636W        W11038   4.829   5.910   9.414
 3637W        W11039  12.700   6.586   1.864
 3638W        W11040  10.811   1.254   7.975
 3639W        W11041   9.898   4.332   2.393
 3640W        W11042   4.778   6.859   0.296
 3641W        W11043   2.963   0.782   9.939
 3642W        W11044   0.464   0.372   0.955
 3643W        W11045   0.879   4.220   8.977
 3644W        W11046   6.874   9.840   1.769
 3645W        W11047   7.097   7.472   7.710
 3646W        W11048  13.467   2.568   0.327
 3647W        W11049  19.004   8.159   8.941
 3648W        W11050   8.685   9.085   8.890
 3649W        W11051  12.164   4.695   9.550
 3650W        W11052  17.901   5.605   1.792
 3651W        W11053  19.644   8.685   2.148
 3652W        W11054  15.361   6.105   8.838
 3653W        W11055   7.425   8.851   2.229
 3654W        W11056  19.512   4.890   0.335
 3655W        W11057  12.160   3.376   0.681
 3656W        W11058   0.908   4.423   0.738
 3657W        W11059  12.623   1.294   1.661
 3658W        W11060  12.940   0.616   7.248
 3659W        W11061   2.771   1.216   1.274
 3660W        W11062   4.032   4.678   8.985
 3661W        W11063   1.365   8.268   0.274
 3662W        W11064   2.658   3.663   8.740
 3663W        W11065  16.229   7.883   1.582
 3664W        W11066  18.725   2.169   8.244
 3665W        W11067   4.538   2.095   8.522
 3666W        W11068   2.114   1.794   7.789
 3667W        W11069  10.291   6.265   0.570
 3668W        W11070  18.552   9.564   8.546
 3669W        W11071  10.573   5.037   0.616
 3670W        W11072   3.438   9.405   2.657
 3671W        W11073  18.133   6.880   1.572
 3672W        W11074   8.148   7.299   1.203
 3673W        W11075  16.155   9.167   9.332
 3674W        W11076  10.454   2.654   8.422
 3675W        W11077   6.186   0.503   8.701
 3676W        W11078   0.018   9.568   2.233
 3677W        W11079   5.289   8.491   0.174
 3678W        W11080  14.256   4.064   8.489
 3679W        W11081  14.753   4.132   8.588
 3680W        W11082   6.139   8.977   0.932
 3681W        W11083   8.683   0.694   1.446
 3682W        W11084  10.985   2.656   9.578
 3683W        W11085  19.312   1.128   7.458
 3684W        W11086   8.467   8.264   7.372
 3685W        W11087  18.870   9.250   2.326
 3686W        W11088   6.418   7.673   2.630
 3687W        W11089  19.373   8.867   0.878
 3688W        W11090   0.244   1.973   0.130
 3689W        W11091  12.350   7.083   2.469
 3690W        W11092  15.061   4.048   0.789
 3691W        W11093   5.839   6.798   9.295
 3692W        W11094   8.954   7.594   2.444
 3693W        W11095   3.240   7.783   9.218
 3694W        W11096  10.059   7.501   9.251
 3695W        W11097   3.679   1.147   1.063
 3696W        W11098  17.598   5.006   8.945
 3697W        W11099  12.562   8.757   1.448
 3698W        W11100   8.615   1.113   9.274
 3699W        W11101  13.661   9.715   8.393
 3700W        W11102   7.571   1.763   1.856
 3701W        W11103   2.912   6.736   8.272
 3702W        W11104  14.497   8.132   9.555
 3703W        W11105  19.381   1.111   7.956
 3704W        W11106   0.582   4.728   9.015
 3705W        W11107  16.321   1.667   0.206
 3706W        W11108   8.883   7.684   1.437
 3707W        W11109   1.564   2.644   8.490
 3708W        W11110   0.734   2.775   9.168
 3709W        W11111   2.075   1.807   9.230
 3710W        W11112  15.390   1.816   9.245
 3711W        W11113  13.869   2.292   7.902
 3712W        W11114  13.721   1.097   0.814
 3713W        W11115  15.001   8.548   1.954
 3714W        W11116   5.979   7.770   7.596
 3715W        W11117   6.886   9.268   9.209
 3716W        W11118  17.710   0.207   1.163
 3717W        W11119   8.373   6.640   0.175
 3718W        W11120  10.304   6.283   1.363
 3719W        W11121   8.489   6.312   0.993
 3720W        W11122   0.652   9.796   0.407
 3721W        W11123   1.100   2.265   9.795
 3722W        W11124  19.794   9.277   1.539
 3723W        W11125   4.059   4.049   9.305
 3724W        W11126   1.877   3.909   0.684
 3725W        W11127  12.662   6.043   8.899
 3726W        W11128   2.016   4.527   8.016
 3727W        W11129   9.139   2.968   0.767
 3728W        W11130  17.423   5.804   0.154
 3729W        W11131   4.355   3.509   0.590
 3730W        W11132  13.851   3.962   9.740
 3731W        W11133   6.689   5.192   9.428
 3732W        W11134   7.745   5.301   7.752
 3733W        W11135  18.474   0.099   8.507
 3734W        W11136   5.823   0.291   0.377
 3735W        W11137   6.569   8.401   1.034
 3736W        W11138   7.986   1.418   9.956
 3737W        W11139   5.310   2.847   2.441
 3738W        W11140   6.211   4.168   8.490
 3739W        W11141  14.153   5.915   0.667
 3740W        W11142   7.095   8.006   9.997
 3741W        W11143  15.482   7.824   2.372
 3742W        W11144  14.519   3.663   8.762
 3743W        W11145   0.605   6.536   0.399
 3744W        W11146   4.136   1.755   1.998
 3745W        W11147   3.197   8.830   1.720
 3746W        W11148   5.821   2.785   2.503
 3747W        W11149  10.341   0.166   9.348
 3748W        W11150  17.258   1.561   9.025
 3749W        W11151   9.860   2.798   1.215
 3750W        W11152  18.659   1.644   1.863
 3751W        W11153   9.596   4.389   9.239
 3752W        W11154  11.600   8.165   7.661
 3753W        W11155  13.321   8.680   9.894
 3754W        W11156  14.421   9.112   0.713
 3755W        W11157   4.291   4.237   8.887
 3756W        W11158  19.462   4.006   0.334
 3757W        W11159  19.822   0.210   9.588
 3758W        W11160  17.134   2.102   8.292
 3759W        W11161   5.143   3.859   8.599
 3760W        W11162   4.323   5.883   9.421
 3761W        W11163   0.761   8.927   0.153
 3762W        W11164  14.891   2.738   9.689
 3763W        W11165   5.677   7.653   1.602
 3764W        W11166  18.836   9.735   1.577
 3765W        W11167  16.128   0.352   8.445
 3766W        W11168   1.570   5.896   8.981
 3767W        W11169   8.872   4.392   1.134
 3768W        W11170  13.455   6.561   1.381
 3769W        W11171  11.418   8.230   1.199
 3770W        W11172  13.350   1.526   8.352
 3771W        W11173   9.320   9.740   9.860
 3772W        W11174   8.007   7.470   9.208
 3773W        W11175   8.561   3.592   1.801
 3774W        W11176  19.742   3.475   9.933
 3775W        W11177   0.730   4.941   7.608
 3776W        W11178  10.443   4.765   9.348
 3777W        W11179  12.918   9.981   0.293
 3778W        W11180   7.224   9.796   2.122
 3779W        W11181   0.446   5.782   0.925
 3780W        W11182   8.897   1.518   1.039
 3781W        W11183  12.435   0.716   9.533
 3782W        W11184   5.158   2.034   7.547
 3783W        W11185  16.407   6.038   1.832
 3784W        W11186   5.291   5.968   0.389
 3785W        W11187   7.874   6.112   0.716
 3786W        W11188  14.702   0.630   1.978
 3787W        W11189   5.599   5.466   1.820
 3788W        W11190   1.844   9.473   0.409
 3789W        W11191   2.828   9.365   2.213
 3790W        W11192  14.919   0.120   9.664
 3791W        W11193   1.421   1.781   7.919
 3792W        W11194  10.606   1.689   1.328
 3793W        W11195   3.487   0.822   0.135
 3794W        W11196  18.986   8.500   0.069
 3795W        W11197  14.104   0.115   0.743
 3796W        W11198   1.156   4.668   7.570
 3797W        W11199  11.822   2.089   8.876
 3798W        W11200  10.810   7.775   0.650
 3799W        W11201   0.765   6.733   0.836
 3800W        W11202   4.591   4.032   9.265
 3801W        W11203   0.437   7.915   8.354
 3802W        W11204   3.350   3.215   0.597
 3803W        W11205   2.397   0.876   8.254
 3804W        W11206  19.298   9.485   1.492
 3805W        W11207  16.398   6.249   7.815
 3806W        W11208   6.975   1.642   1.189
 3807W        W11209   0.966   3.142   9.457
 3808W        W11210  16.384   8.200   0.695
 3809W        W11211   1.727   7.281   8.644
 3810W        W11212   6.006   0.518   7.891
 3811W        W11213   4.161   1.066   1.252
 3812W        W11214   5.501   2.974   0.809
 3813W        W11215   5.332   3.712   9.513
 3814W        W11216  13.157   6.368   9.242
 3815W        W11217  12.627   9.054   8.094
 3816W        W11218  19.547   5.710   7.685
 3817W        W11219   0.229   2.190   0.604
 3818W        W11220   8.988   8.411   1.215
 3819W        W11221   0.105   4.336   1.984
 3820W        W11222   5.599   6.981   9.851
 3821W        W11223   2.580   9.036   9.294
 3822W        W11224   2.014   9.168   1.160
 3823W        W11225   5.282   2.323   8.864
 3824W        W11226  15.216   7.157   7.818
 3825W        W11227   1.967   7.341   7.618
 3826W        W11228  10.532   6.850   9.719
 3827W        W11229  18.469   8.328   2.123
 3828W        W11230  17.930   0.634   0.965
 3829W        W11231   6.972   0.627   2.574
 3830W        W11232   5.204   1.692   9.791
 3831W        W11233   4.142   2.589   2.367
 3832W        W11234  17.252   9.687   8.758
 3833W        W11235  10.136   2.539   9.254
 3834W        W11236   8.809   8.886   0.742
 3835W        W11237  15.302   0.225   9.196
 3836W        W11238   6.541   5.892   0.825
 3837W        W11239   1.337   8.894   0.868
 3838W        W11240   8.960   9.754   1.710
 3839W        W11241   9.497   0.474   8.415
 3840W        W11242  10.340   1.456   2.084
 3841W        W11243  18.559   3.041   1.257
 3842W        W11244  11.169   1.205   2.171
 3843W        W11245  14.400   2.620   9.805
 3844W        W11246   9.678   0.833   1.093
 3845W        W11247   6.399   6.350   7.719
 3846W        W11248   5.580   1.274   1.283
 3847W        W11249   9.884   8.755   0.675
 3848W        W11250  19.272   0.595   9.184
 3849W        W11251   6.603   9.842   2.208
 3850W        W11252  19.227   3.319   7.511
 3851W        W11253  13.069   2.243   9.196
 3852W        W11254   8.005   5.344   1.675
 3853W        W11255  16.261   7.213   1.444
 3854W        W11256  18.983   6.157   0.891
 3855W        W11257  15.948   0.617   9.333
 3856W        W11258   4.766   3.123   9.848
 3857W        W11259  10.510   3.569   8.194
 3858W        W11260   1.951   5.363   0.253
 3859W        W11261  10.280   7.308   9.716
 3860W        W11262   0.299   8.212   1.075
 3861W        W11263  12.007   8.326   7.942
 3862W        W11264   9.446   0.086   8.935
 3863W        W11265  17.132   8.559   9.745
 3864W        W11266  14.499   7.109   8.484
 3865W        W11267  10.468   6.551   0.972
 3866W        W11268   9.457   3.614   0.811
 3867W        W11269   3.767   6.911   0.161
 3868W        W11270   0.054   7.556   8.263
 3869W        W11271  13.863   1.568   8.390
 3870W        W11272  10.790   6.410   9.688
 3871W        W11273  11.417   6.375   1.947
 3872W        W11274   1.786   2.270   9.088
 3873W        W11275   9.788   3.990   0.069
 3874W        W11276  13.816   3.471   1.441
 3875W        W11277   7.584   4.648   0.733
 3876W        W11278   5.179   8.450   0.686
 3877W        W11279  16.767   9.489   2.700
 3878W        W11280   3.210   1.194   9.319
 3879W        W11281   0.123   0.786   0.898
 3880W        W11282   2.314   3.391   9.456
 3881W        W11283  10.093   7.539   1.939
 3882W        W11284  13.976   8.179   1.031
 3883W        W11285  16.420   0.394   9.448
 3884W        W11286   4.166   4.320   0.975
 3885W        W11287   4.806   7.769   1.399
 3886W        W11288   5.174   8.311   9.730
 3887W        W11289   4.341   7.894   9.606
 3888W        W11290  17.923   8.970   0.603
 3889W        W11291   7.077   4.348   0.360
 3890W        W11292  12.611   1.413   8.883
 3891W        W11293  13.594   1.144   1.419
 3892W        W11294   4.922   2.550   1.573
 3893W        W11295   7.024   3.928   1.254
 3894W        W11296  14.218   7.934   1.940
 3895W        W11297   0.915   6.565   1.664
 3896W        W11298  13.585   7.907   0.765
 3897W        W11299  11.621   7.438   9.326
 3898W        W11300  19.153   7.036   1.726
 3899W        W11301  11.152   8.368   9.399
 3900W        W11302  11.397   8.729   9.117
 3901W        W11303   0.800   7.027   9.171
 3902W        W11304   4.176   8.976   0.921
 3903W        W11305   8.164   7.910   0.498
 3904W        W11306   9.526   2.479   0.313
 3905W        W11307  16.904   9.451   1.224
 3906W        W11308  15.530   8.836   9.773
 3907W        W11309  16.291   8.747   1.439
 3908W        W11310  12.238   2.871   9.721
 3909W        W11311   3.971   4.409   0.265
 3910W        W11312   3.359   5.888   7.683
 3911W        W11313   2.870   9.549   8.549
 3912W        W11314   0.921   4.626   1.829
 3913W        W11315  11.321   5.285   1.279
 3914W        W11316  11.326   6.799   1.695
 3915W        W11317  14.177   7.287   9.265
 3916W        W11318  16.414   3.373   1.713
 3917W        W11319   6.191   5.153   8.371
 3918W        W11320  18.749   3.750   8.354
 3919W        W11321  13.869   5.787   9.350
 3920W        W11322  11.424   1.648   8.487
 3921W        W11323  10.227   3.138   9.433
 3922W        W11324   6.995   5.700   7.970
 3923W        W11325   6.602   5.395   0.780
 3924W        W11326  10.138   1.783   9.975
 3925W        W11327   3.868   7.268   8.563
 3926W        W11328  18.480   5.932   9.343
 3927W        W11329  19.701   3.671   7.983
 3928W        W11330   8.386   4.043   8.802
 3929W        W11331  16.051   5.338   0.844
 3930W        W11332  17.533   4.975   0.812
 3931W        W11333  16.042   8.338   9.142
 3932W        W11334  16.697   5.112   9.304
 3933W        W11335   5.368   5.945   9.464
 3934W        W11336  14.770   3.399   2.093
 3935W        W11337   8.088   8.319   0.801
 3936W        W11338  18.671   5.694   0.861
 3937W        W11339  18.283   1.883   2.118
 3938W        W11340  18.210   5.905   8.922
 3939W        W11341  10.784   6.414   8.863
 3940W        W11342   1.303   8.101   8.487
 3941W        W11343   4.346   5.613   7.954
 3942W        W11344  15.704   9.143   9.003
 3943W        W11345  17.721   6.819   8.944
 3944W        W11346   0.566   7.759   0.973
 3945W        W11347  19.203   6.303   0.424
 3946W        W11348  11.506   3.818   1.657
 3947W        W11349   3.883   9.979   9.756
 3948W        W11350   0.271   0.981   1.361
 3949W        W11351  10.207   5.665   1.931
 3950W        W11352  11.898   1.652   9.294
 3951W        W11353  10.180   9.364   7.689
 3952W        W11354  18.036   8.940   2.518
 3953W        W11355   1.564   7.720   1.840
 3954W        W11356  19.411   6.568   1.743
 3955W        W11357  14.343   1.695   0.830
 3956W        W11358   2.472   3.446   0.235
 3957W        W11359  13.608   0.316   7.863
 3958W        W11360   1.404   3.114   1.428
 3959W        W11361  14.349   7.802   9.196
 3960W        W11362   3.485   5.132   0.622
 3961W        W11363   6.646   2.593   8.710
 3962W        W11364  14.240   0.899   9.725
 3963W        W11365   9.527   6.675   9.386
 3964W        W11366  12.966   8.618   8.702
 3965W        W11367  12.490   4.218   9.408
 3966W        W11368   1.198   6.536   8.035
 3967W        W11369   4.749   9.924   8.368
 3968W        W11370   6.855   1.511   9.852
 3969W        W11371  13.948   6.744   9.561
 3970W        W11372   5.746   5.766   0.420
 3971W        W11373  15.976   1.127   9.093
 3972W        W11374  10.890   2.658   8.060
 3973W        W11375   8.212   7.745   1.963
 3974W        W11376  11.271   8.143   2.508
 3975W        W11377  18.213   2.969   8.811
 3976W        W11378   2.368   3.254   2.307
 3977W        W11379   9.452   8.452   1.434
 3978W        W11380  17.263   3.015   9.043
 3979W        W11381   9.490   3.164   1.058
 3980W        W11382   5.356   4.568   0.652
 3981W        W11383   5.169   3.528   1.522
 3982W        W11384  15.158   2.914   8.020
 3983W        W11385   8.039   2.558   1.498
 3984W        W11386  17.841   0.878   2.576
 3985W        W11387   4.403   1.695   9.281
 3986W        W11388  16.487   9.913   8.664
 3987W        W11389  16.461   0.404   0.877
 3988W        W11390  14.032   0.975   1.210
 3989W        W11391  17.157   2.502   8.937
 3990W        W11392   2.317   6.770   9.340
 3991W        W11393  13.135   1.127   8.070
 3992W        W11394   0.626   5.258   2.123
 3993W        W11395  16.595   3.438   1.236
 3994W        W11396  13.420   0.701   8.140
 3995W        W11397  10.860   3.526   0.852
 3996W        W11398   9.274   3.263   0.087
 3997W        W11399   9.535   6.959   8.691
 3998W        W11400  18.705   2.141   2.088
 3999W        W11401   0.794   0.071   1.770
 4000W        W11402  11.445   3.791   2.304
 4001W        W11403  13.114   5.923   9.842
 4002W        W11404   8.408   2.726   8.384
 4003W        W11405   3.456   4.473   0.405
 4004W        W11406   9.011   4.905   1.892
 4005W        W11407  18.675   3.557   1.360
 4006W        W11408   9.468   1.549   0.426
 4007W        W11409  18.645   4.511   2.365
 4008W        W11410  15.382   4.376   1.697
 4009W        W11411   9.098   4.624   9.956
 4010W        W11412   4.797   7.266   0.687
 4011W        W11413  19.317   4.854   7.666
 4012W        W11414   2.422   2.283   8.493
 4013W        W11415   6.867   4.872   7.764
 4014W        W11416  18.637   0.616   2.018
 4015W        W11417   4.051   9.571   9.520
 4016W        W11418   1.283   5.737   0.307
 4017W        W11419   6.202   9.408   9.725
 4018W        W11420  17.815   0.945   9.962
 4019W        W11421  19.786   4.760   9.912
 4020W        W11422  15.757   8.910   0.235
 4021W        W11423  18.880   0.797   1.560
 4022W        W11424   8.274   3.155   0.163
 4023W        W11425   7.723   4.101   2.006
 4024W        W11426  13.495   8.336   1.193
 4025W        W11427  13.270   1.884   2.047
 4026W        W11428  15.613   9.844   8.445
 4027W        W11429  10.497   8.358   1.303
 4028W        W11430   0.044   4.319   9.755
 4029W        W11431   4.958   8.971   9.530
 4030W        W11432   6.010   6.388   2.125
 4031W        W11433  10.285   6.584   8.351
 4032W        W11434   3.358   9.052   9.876
 4033W        W11435   4.197   2.178   0.359
 4034W        W11436   3.160   8.568   9.863
 4035W        W11437   5.261   4.542   9.576
 4036W        W11438  12.518   0.930   8.521
 4037W        W11439   5.604   0.483   9.331
 4038W        W11440   1.939   1.106   1.707
 4039W        W11441  12.587   1.166   9.355
 4040W        W11442   6.719   8.294   8.969
 4041W        W11443  14.398   3.423   1.726
 4042W        W11444  17.888   7.276   8.720
 4043W        W11445   2.284   5.827   9.265
 4044W        W11446  10.326   0.956   9.572
 4045W        W11447   9.870   8.050   8.417
 4046W        W11448   5.180   0.814   7.889
 4047W        W11449   1.885   1.337   9.174
 4048W        W11450  13.709   7.462   8.425
 4049W        W11451  19.888   5.139   9.009
 4050W        W11452  19.374   8.921   7.921
 4051W        W11453   0.221   9.314   9.829
 4052W        W11454   7.007   5.170   1.482
 4053W        W11455  14.368   7.629   9.668
 4054W        W11456   2.140   7.045   8.003
 4055W        W11457  12.380   2.358   2.435
 4056W        W11458   0.087   6.832   0.343
 4057W        W11459   5.116   1.215   9.621
 4058W        W11460  10.931   4.664   9.462
 4059W        W11461   6.877   9.387   2.047
 4060W        W11462  15.034   3.939   8.970
 4061W        W11463  19.979   5.920   0.263
 4062W        W11464  14.055   3.740   0.185
 4063W        W11465  19.443   3.281   1.779
 4064W        W11466  13.036   3.350   8.266
 4065W        W11467  11.460   1.570   1.294
 4066W        W11468  16.787   5.407   8.014
 4067W        W11469  15.807   4.111   9.476
 4068W        W11470   9.066   4.252   9.261
 4069W        W11471   3.714   5.627   8.955
 4070W        W11472  16.244   2.129   8.770
 4071W        W11473   1.170   5.589   8.043
 4072W        W11474   3.259   6.518   9.819
 4073W        W11475  13.992   0.111   8.157
 4074W        W11476   6.740   4.764   1.802
 4075W        W11477  12.690   7.827   2.684
 4076W        W11478  11.290   6.072   8.416
 4077W        W11479   3.514   6.281   2.057
 4078W        W11480   2.202   6.256   8.374
 4079W        W11481   3.260   1.050   1.353
 4080W        W11482   5.809   4.557   0.915
 4081W        W11483  13.805   9.334   9.630
 4082W        W11484  19.909   9.496   7.996
 4083W        W11485   1.651   3.123   8.851
 4084W        W11486  10.192   6.772   0.591
 4085W        W11487   6.220   2.441   0.130
 4086W        W11488   5.251   5.030   1.447
 4087W        W11489   8.999   2.975   9.696
 4088W        W11490   4.844   5.595   7.228
 4089W        W11491   6.492   7.506   0.449
 4090W        W11492   4.898   9.956   1.814
 4091W        W11493  15.197   9.356   7.304
 4092W        W11494  14.846   4.127   1.252
 4093W        W11495   2.995   7.711   2.088
 4094W        W11496  14.588   6.250   1.891
 4095W        W11497   4.574   8.921   8.715
 4096W        W11498  16.895   3.565   1.652
 4097W        W11499   6.763   8.267   8.465
 4098W        W11500  18.492   6.806   0.469
 4099W        W11501  12.744   4.060   2.086
 4100W        W11502   8.943   4.896   1.365
 4101W        W11503  14.657   3.887   9.843
 4102W        W11504   2.900   7.201   1.321
 4103W        W11505  12.525   8.712   8.488
 4104W        W11506  12.897   9.558   1.140
 4105W        W11507   6.275   6.779   7.978
 4106W        W11508  13.383   6.346   9.738
 4107W        W11509   8.948   9.401   8.563
 4108W        W11510  16.863   8.558   0.159
 4109W        W11511  10.054   7.763   9.704
 4110W        W11512   2.114   1.957   2.022
 4111W        W11513   2.581   0.382   8.087
 4112W        W11514  15.104   9.257   1.371
 4113W        W11515   9.675   5.572   8.819
 4114W        W11516  14.063   4.776   1.733
 4115W        W11517   1.841   2.535   1.185
 4116W        W11518  14.351   7.976   8.723
 4117W        W11519  11.892   1.720   1.515
 4118W        W11520   8.724   6.257   0.163
 4119W        W11521   9.756   9.975   1.357
 4120W        W11522  11.292   5.961   1.171
 4121W        W11523  15.933   0.332   0.891
 4122W        W11524   3.744   7.339   0.760
 4123W        W11525  16.463   1.875   2.065
 4124W        W11526  12.178   4.624   7.781
 4125W        W11527  15.965   8.024   2.446
 4126W        W11528   6.029   7.383   1.280
 4127W        W11529   1.682   8.222   1.816
 4128W        W11530   6.704   9.320   9.705
 4129W        W11531  15.007   0.120   0.596
 4130W        W11532  10.809   3.606   1.358
 4131W        W11533  18.708   1.673   8.364
 4132W        W11534  17.270   8.201   0.837
 4133W        W11535   3.183   7.470   1.658
 4134W        W11536   3.239   9.004   8.669
 4135W        W11537  15.676   0.381   8.837
 4136W        W11538  19.923   3.435   1.893
 4137W        W11539   3.519   5.527   1.020
 4138W        W11540   3.729   1.342   1.538
 4139W        W11541  11.282   5.160   0.380
 4140W        W11542  19.841   8.407   1.273
 4141W        W11543  11.361   4.184   1.988
 4142W        W11544   1.941   1.944   2.518
 4143W        W11545   6.428   0.320   1.103
 4144W        W11546  12.841   0.040   1.910
 4145W        W11547   7.000   1.456   9.348
 4146W        W11548  15.087   0.768   7.872
 4147W        W11549  13.446   8.854   0.851
 4148W        W11550  17.885   6.635   2.359
 4149W        W11551  19.078   1.581   1.169
 4150W        W11552  16.777   8.687   8.276
 4151W        W11553   5.418   7.807   2.310
 4152W        W11554  17.828   5.399   0.824
 4153W        W11555  18.829   5.580   1.738
 4154W        W11556   4.446   7.197   9.412
 4155W        W11557   1.013   6.750   0.193
 4156W        W11558  14.819   4.810   2.245
 4157W        W11559  11.536   5.965   1.675
 4158W        W11560  10.578   6.051   0.933
 4159W        W11561  10.548   1.400   9.794
 4160W        W11562  11.295   0.129   9.819
 4161W        W11563  19.671   4.354   9.365
 4162W        W11564  19.337   2.404   8.840
 4163W        W11565   9.109   1.291   8.361
 4164W        W11566  14.343   4.553   8.806
 4165W        W11567   3.411   2.976   1.556
 4166W        W11568  19.986   5.067   0.261
 4167W        W11569   8.463   5.792   0.124
 4168W        W11570   5.402   4.555   0.102
 4169W        W11571   6.326   7.683   7.943
 4170W        W11572  10.240   9.196   0.600
 4171W        W11573  19.182   1.543   7.789
 4172W        W11574   1.351   3.031   0.902
 4173W        W11575   4.617   3.028   1.276
 4174W        W11576   1.611   6.246   9.700
 4175W        W11577   4.045   3.743   8.903
 4176W        W11578   5.552   5.718   7.931
 4177W        W11579  17.291   7.707   0.766
 4178W        W11580  16.249   5.448   2.337
 4179W        W11581   0.334   0.234   0.461
 4180W        W11582  14.046   4.583   0.220
 4181W        W11583  18.434   6.295   8.546
 4182W        W11584   7.489   5.566   0.644
 4183W        W11585   5.916   8.363   8.411
 4184W        W11586  10.084   4.499   8.450
 4185W        W11587  15.636   4.571   1.270
 4186W        W11588   3.591   9.020   1.399
 4187W        W11589  19.497   5.958   9.380
 4188W        W11590  12.036   3.930   8.790
 4189W        W11591   1.999   5.137   1.980
 4190W        W11592   6.688   3.044   8.479
 4191W        W11593   3.663   7.331   1.687
 4192W        W11594   2.889   9.417   1.156
 4193W        W11595   7.801   2.502   9.153
 4194W        W11596  13.392   5.795   0.296
 4195W        W11597   3.297   4.406   1.870
 4196W        W11598   5.686   7.369   7.617
 4197W        W11599   8.126   8.757   0.007
 4198W        W11600   0.143   8.763   2.333
 4199W        W11601  12.277   4.566   0.048
 4200W        W11602  17.327   4.623   8.127
 4201W        W11603   9.715   1.829   1.920
 4202W        W11604   4.476   6.076   7.707
 4203W        W11605  19.605   0.761   0.771
 4204W        W11606  11.882   0.420   2.139
 4205W        W11607  16.657   2.540   1.015
 4206W        W11608  18.889   6.053   7.974
 4207W        W11609  13.729   2.774   8.790
 4208W        W11610   9.256   5.106   0.061
 4209W        W11611  15.701   2.046   8.060
 4210W        W11612   9.381   6.570   7.989
 4211W        W11613  10.689   3.061   9.684
 4212W        W11614   4.385   9.904   9.792
 4213W        W11615  12.087   3.615   1.250
 4214W        W11616  19.201   7.965   1.675
 4215W        W11617   2.607   3.950   0.215
 4216W        W11618   3.062   2.697   1.921
 4217W        W11619  13.437   2.911   2.063
 4218W        W11620   0.311   9.844   0.815
 4219W        W11621   0.399   4.511   0.725
 4220W        W11622   8.245   8.274   2.399
 4221W        W11623  16.064   3.911   0.780
 4222W        W11624   7.855   8.055   2.169
 4223W        W11625  11.180   2.246   7.982
 4224W        W11626  10.697   3.954   8.553
 4225W        W11627  10.259   4.278   7.592
 4226W        W11628  12.103   7.385   2.081
 4227W        W11629  12.536   6.561   1.143
 4228W        W11630  12.542   5.010   8.551
 4229W        W11631   5.018   1.712   1.811
 4230W        W11632  12.987   3.138   9.779
 4231W        W11633   3.189   2.152   1.105
 4232W        W11634   2.662   4.068   8.396
 4233W        W11635  19.506   1.457   9.940
 4234W        W11636  12.273   2.610   0.956
 4235W        W11637   2.239   9.407   9.056
 4236W        W11638  11.448   3.745   2.824
 4237W        W11639  16.945   3.012   0.532
 4238W        W11640   1.767   9.269   8.171
 4239W        W11641  14.045   0.243   0.245
 4240W        W11642  18.399   8.078   9.403
 4241W        W11643  15.995   4.177   0.338
 4242W        W11644   1.313   2.847   0.389
 4243W        W11645   7.629   7.825   9.757
 4244W        W11646  11.114   2.900   0.041
 4245W        W11647   2.458   2.698   8.953
 4246W        W11648   9.363   3.138   2.086
 4247W        W11649  12.442   7.418   1.336
 4248W        W11650  15.779   8.349   0.784
 4249W        W11651  19.962   6.919   9.853
 4250W        W11652   6.681   8.549   7.844
 4251W        W11653   7.693   0.728   9.268
 4252W        W11654  17.656   5.847   1.117
 4253W        W11655   7.114   7.115   0.026
 4254W        W11656  14.022   2.368   8.868
 4255W        W11657   4.736   5.610   2.053
 4256W        W11658   3.079   0.300   8.368
 4257W        W11659  17.990   8.157   1.416
 4258W        W11660   0.533   4.058   1.930
 4259W        W11661  17.518   8.172   9.772
 4260W        W11662  13.431   4.065   9.396
 4261W        W11663  12.515   4.519   1.389
 4262W        W11664   2.649   0.380   1.020
 4263W        W11665  10.064   1.544   9.540
 4264W        W11666  10.057   9.164   9.778
 4265W        W11667  17.796   6.639   1.254
 4266W        W11668  16.883   0.008   2.695
 4267W        W11669  16.753   9.561   0.757
 4268W        W11670   6.050   5.149   7.862
 4269W        W11671   7.743   0.286   9.583
 4270W        W11672   3.180   9.213   0.743
 4271W        W11673   6.190   7.614   1.694
 4272W        W11674   8.438   0.817   8.884
 4273W        W11675   8.405   7.885   7.029
 4274W        W11676  16.374   7.757   1.124
 4275W        W11677   2.890   8.528   8.595
 4276W        W11678  17.641   2.690   8.860
 4277W        W11679  18.703   7.700   9.585
 4278W        W11680  19.199   5.328   1.970
 4279W        W11681   8.845   1.545   1.717
 4280W        W11682  13.729   7.056   9.131
 4281W        W11683   7.107   7.041   8.482
 4282W        W11684   6.777   8.756   8.288
 4283W        W11685   9.886   7.723   0.523
 4284W        W11686  16.474   8.979   8.624
 4285W        W11687  10.329   7.059   1.006
 4286W        W11688  12.936   0.908   1.325
 4287W        W11689  19.393   5.112   8.862
 4288W        W11690  14.761   2.150   7.795
 4289W        W11691   3.883   4.821   7.800
 4290W        W11692  16.696   6.324   1.514
 4291W        W11693   2.536   8.438   0.653
 4292W        W11694  15.159   7.498   9.144
 4293W        W11695   1.885   7.129   0.576
 4294W        W11696  19.655   3.897   9.123
 4295W        W11697   8.888   2.371   2.212
 4296W        W11698   0.908   6.203   0.869
 4297W        W11699  14.498   8.791   7.658
 4298W        W11700  15.218   3.905   0.317
 4299W        W11701  18.886   0.262   1.749
 4300W        W11702   8.935   3.746   0.134
 4301W        W11703  12.418   0.794   0.043
 4302W        W11704   6.145   4.408   8.045
 4303W        W11705   0.668   8.449   0.330
 4304W        W11706   5.972   2.063   9.909
 4305W        W11707  14.009   2.263   9.745
 4306W        W11708  19.003   4.008   0.082
 4307W        W11709  17.556   7.936   1.251
 4308W        W11710  15.368   8.842   7.766
 4309W        W11711   2.883   8.828   2.127
 4310W        W11712  16.587   8.186   9.239
 4311W        W11713   2.881   3.572   1.355
 4312W        W11714  18.449   7.413   1.957
 4313W        W11715  11.319   1.417   0.111
 4314W        W11716  11.407   8.631   0.833
 4315W        W11717   0.146   6.522   2.097
 4316W        W11718  13.467   4.121   7.934
 4317W        W11719  15.385   9.751   0.463
 4318W        W11720  11.648   8.984   0.468
 4319W        W11721  17.499   0.075   1.612
 4320W        W11722  15.538   9.899   0.968
 4321W        W11723  19.367   1.489   9.305
 4322W        W11724   3.550   4.910   9.427
 4323W        W11725   0.166   5.480   8.231
 4324W        W11726  16.281   3.732   0.289
 4325W        W11727  11.513   8.704   9.601
 4326W        W11728   6.596   4.190   1.159
 4327W        W11729   3.753   2.582   8.430
 4328W        W11730  19.062   3.760   0.675
 4329W        W11731   7.121   4.836   0.633
 4330W        W11732  14.855   7.283   0.676
 4331W        W11733  18.404   0.306   9.474
 4332W        W11734   7.944   2.113   8.843
 4333W        W11735   6.540   8.960   1.704
 4334W        W11736  17.807   3.371   9.672
 4335W        W11737  11.429   2.543   8.786
 4336W        W11738   8.574   5.917   1.324
 4337W        W11739  18.715   6.018   8.897
 4338W        W11740   3.917   9.347   1.210
 4339W        W11741  18.212   7.817   9.795
 4340W        W11742   2.726   0.765   7.779
 4341W        W11743   3.050   4.636   9.807
 4342W        W11744   7.340   6.539   0.966
 4343W        W11745  13.947   4.504   8.466
 4344W        W11746   1.799   6.849   2.363
 4345W        W11747   2.190   2.485   1.561
 4346W        W11748  12.494   3.764   0.249
 4347W        W11749  10.295   0.005   7.972
 4348W        W11750   9.915   9.763   9.366
 4349W        W11751   8.876   4.462   1.651
 4350W        W11752   4.869   7.743   0.466
 4351W        W11753  10.121   1.541   8.533
 4352W        W11754  16.149   3.499   2.136
 4353W        W11755   1.688   0.891   2.098
 4354W        W11756   0.128   2.720   0.874
 4355W        W11757   7.564   4.100   9.424
 4356W        W11758   7.281   0.998   2.411
 4357W        W11759  17.065   9.387   7.878
 4358W        W11760   3.280   2.476   1.512
 4359W        W11761  17.006   6.567   1.161
 4360W        W11762   8.724   2.618   7.967
 4361W        W11763  19.404   7.492   1.671
 4362W        W11764  11.804   6.368   7.946
 4363W        W11765  11.561   5.999   9.832
 4364W        W11766   4.564   4.301   8.443
 4365W        W11767   1.090   7.048   0.623
 4366W        W11768  13.209   2.667   9.475
 4367W        W11769  10.252   6.408   9.708
 4368W        W11770   7.541   1.171   8.598
 4369W        W11771  12.509   9.315   1.858
 4370W        W11772  18.391   0.358   8.967
 4371W        W11773  17.529   3.756   1.934
 4372W        W11774  14.089   6.163   8.705
 4373W        W11775  12.843   6.512   0.645
 4374W        W11776  15.269   0.191   0.165
 4375W        W11777   8.047   1.076   1.330
 4376W        W11778  19.903   9.061   7.702
 4377W        W11779   7.512   4.929   8.882
 4378W        W11780   5.548   8.185   0.916
 4379W        W11781   6.662   2.034   1.040
 4380W        W11782  19.557   9.309   0.601
 4381W        W11783   2.199   6.542   8.815
 4382W        W11784   7.907   0.227   1.273
 4383W        W11785  12.649   9.194   9.333
 4384W        W11786  17.997   3.681   7.819
 4385W        W11787  15.753   4.888   9.609
 4386W        W11788  19.259   6.832   8.687
 4387W        W11789  13.415   7.192   1.988
 4388W        W11790  11.083   5.676   1.547
 4389W        W11791  18.890   8.367   1.761
 4390W        W11792  18.694   9.374   0.833
 4391W        W11793   1.904   4.366   9.464
 4392W        W11794   3.891   4.151   9.787
 4393W        W11795   3.847   3.300   9.818
 4394W        W11796  18.715   0.625   7.979
 4395W        W11797  13.479   9.324   1.120
 4396W        W11798  11.109   2.167   0.790
 4397W        W11799  16.710   6.541   8.529
 4398W        W11800  15.756   0.370   0.210
 4399W        W11801   5.098   5.570   8.150
 4400W        W11802   2.459   6.896   1.198
 4401W        W11803  18.264   7.581   9.319
 4402W        W11804   4.671   6.397   8.515
 4403W        W11805  17.563   4.807   9.420
 4404W        W11806  11.035   6.964   1.271
 4405W        W11807   0.144   1.559   8.186
 4406W        W11808  15.465   0.628   1.116
 4407W        W11809   8.334   5.506   2.202
 4408W        W11810   6.240   4.666   8.480
 4409W        W11811  14.233   6.601   1.838
 4410W        W11812   7.174   1.943   9.222
 4411W        W11813   4.273   7.428   9.832
 4412W        W11814   8.406   6.836   1.604
 4413W        W11815   6.175   5.084   9.385
 4414W        W11816   5.645   3.648   1.365
 4415W        W11817  14.527   0.203   0.469
 4416W        W11818  12.928   0.736   8.809
 4417W        W11819  13.204   6.979   0.291
 4418W        W11820  19.749   2.366   1.439
 4419W        W11821  19.881   8.887   9.339
 4420W        W11822  12.872   4.119   1.073
 4421W        W11823   1.651   8.573   0.572
 4422W        W11824   4.185   9.680   8.984
 4423W        W11825   8.582   1.655   0.166
 4424W        W11826   4.827   4.736   8.240
 4425W        W11827   2.000   9.370   7.696
 4426W        W11828   0.260   8.278   1.574
 4427W        W11829   3.058   9.852   0.956
 4428W        W11830  18.479   5.888   8.253
 4429W        W11831   3.485   7.348   0.317
 4430W        W11832   2.856   3.044   9.768
 4431W        W11833  14.248   1.815   1.330
 4432W        W11834  14.609   6.858   0.805
 4433W        W11835  11.589   8.346   1.701
 4434W        W11836   4.643   1.638   8.812
 4435W        W11837   0.704   6.658   9.519
 4436W        W11838  18.396   0.478   0.738
 4437W        W11839   9.201   1.775   1.976
 4438W        W11840   5.712   2.931   8.733
 4439W        W11841  10.291   1.082   0.083
 4440W        W11842   6.278   0.393   0.576
 4441W        W11843  16.977   2.200   0.796
 4442W        W11844  10.597   9.197   9.104
 4443W        W11845   4.020   9.661   2.078
 4444W        W11846  15.166   6.581   1.964
 4445W        W11847   6.625   5.362   8.561
 4446W        W11848  16.627   2.099   9.466
 4447W        W11849  16.093   1.250   0.489
 4448W        W11850   1.703   0.825   7.918
 4449W        W11851   1.159   1.751   2.016
 4450W        W11852  17.776   8.040   0.803
 4451W        W11853  12.760   4.985   1.376
 4452W        W11854  18.458   1.994   9.190
 4453W        W11855  13.020   8.679   1.125
 4454W        W11856  16.632   0.450   8.461
 4455W        W11857  19.249   3.272   8.904
 4456W        W11858  10.226   0.794   7.478
 4457W        W11859   2.873   3.242   2.166
 4458W        W11860   0.697   0.758   8.476
 4459W        W11861   5.650   0.439   2.261
 4460W        W11862  17.583   9.334   0.447
 4461W        W11863   9.118   0.853   8.076
 4462W        W11864   5.638   3.723   8.520
 4463W        W11865   0.624   9.474   1.315
 4464W        W11866   4.018   9.563   8.345
 4465W        W11867  12.973   2.683   2.040
 4466W        W11868  19.204   7.297   8.493
 4467W        W11869  14.147   1.008   8.179
 4468W        W11870   2.736   5.538   9.030
 4469W        W11871  19.274   1.554   8.799
 4470W        W11872  17.687   4.824   2.420
 4471W        W11873   3.493   7.043   8.842
 4472W        W11874  15.570   1.357   2.264
 4473W        W11875  15.141   3.147   8.469
 4474W        W11876  11.058   8.850   7.735
 4475W        W11877  15.408   9.370   8.632
 4476W        W11878  16.596   1.302   0.463
 4477W        W11879   8.487   8.656   8.661
 4478W        W11880  17.691   2.740   0.834
 4479W        W11881  10.238   3.200   9.927
 4480W        W11882  18.418   1.709   9.617
 4481W        W11883   3.102   3.876   8.575
 4482W        W11884   0.884   3.705   1.859
 4483W        W11885  17.751   0.680   8.127
 4484W        W11886   2.824   0.705   1.394
 4485W        W11887   8.080   3.939   2.336
 4486W        W11888   6.894   6.143   8.484
 4487W        W11889   9.423   9.653   9.221
 4488W        W11890   5.922   7.984   8.056
 4489W        W11891  10.132   8.857   7.831
 4490W        W11892  17.006   6.550   2.375
 4491W        W11893   7.020   3.882   0.127
 4492W        W11894  15.003   1.706   1.691
 4493W        W11895  15.832   6.225   0.057
 4494W        W11896  15.917   5.112   7.693
 4495W        W11897  18.259   6.824   9.845
 4496W        W11898   6.280   0.934   9.415
 4497W        W11899   3.682   1.896   8.085
 4498W        W11900   3.965   0.317   7.852
 4499W        W11901   4.635   5.253   7.570
 4500W        W11902   6.506   5.902   7.899
 4501W        W11903  15.025   6.759   9.067
 4502W        W11904   2.715   2.992   0.255
 4503W        W11905   9.773   3.459   7.835
 4504W        W11906   9.577   3.917   7.984
 4505W        W11907  18.470   1.050   8.065
 4506W        W11908  18.886   7.485   1.708
 4507W        W11909   5.270   5.128   8.889
 4508W        W11910  17.053   2.993   0.036
 4509W        W11911  16.244   9.081   0.266
 4510W        W11912   9.399   9.577   8.706
 4511W        W11913   3.071   8.356   0.633
 4512W        W11914  12.248   6.536   1.583
 4513W        W11915  12.789   9.349   7.724
 4514W        W11916   9.291   9.901   2.067
 4515W        W11917   3.408   2.569   9.441
 4516W        W11918   6.632   2.097   8.436
 4517W        W11919  18.187   3.543   1.162
 4518W        W11920   7.129   8.433   2.163
 4519W        W11921   7.541   7.356   1.503
 4520W        W11922  14.975   8.010   8.362
 4521W        W11923  15.446   1.111   1.355
 4522W        W11924  14.933   5.382   7.858
 4523W        W11925  18.867   9.842   9.467
 4524W        W11926   5.165   9.633   8.291
 4525W        W11927   3.929   0.440   9.478
 4526W        W11928   9.029   1.065   0.871
 4527W        W11929  18.492   4.987   0.362
 4528W        W11930   5.553   9.569   0.682
 4529W        W11931  18.195   3.578   0.523
 4530W        W11932  11.209   8.337   8.357
 4531W        W11933   7.437   0.509   0.547
 4532W        W11934  12.702   7.305   9.333
 4533W        W11935   8.467   2.263   1.006
 4534W        W11936   3.272   4.206   8.922
 4535W        W11937  10.708   8.427   8.473
 4536W        W11938   4.565   9.014   7.856
 4537W        W11939  16.203   0.380   0.439
 4538W        W11940   8.023   1.886   0.212
 4539W        W11941   6.644   3.921   8.515
 4540W        W11942   5.073   7.972   0.879
 4541W        W11943   5.452   9.074   7.911
 4542W        W11944   0.902   8.647   7.724
 4543W        W11945   4.112   4.416   8.050
 4544W        W11946   6.761   8.077   2.212
 4545W        W11947  11.943   2.217   2.232
 4546W        W11948  13.058   8.210   2.387
 4547W        W11949   5.188   8.499   1.729
 4548W        W11950   2.846   9.904   9.774
 4549W        W11951  12.490   8.340   8.861
 4550W        W11952  19.837   2.032   2.147
 4551W        W11953  16.109   1.952   7.760
 4552W        W11954  16.160   0.802   0.746
 4553W        W11955   0.113   8.472   0.677
 4554W        W11956  15.482   2.141   9.991
 4555W        W11957  12.241   5.455   7.830
 4556W        W11958  13.037   3.870   9.095
 4557W        W11959   7.722   3.656   1.746
 4558W        W11960  18.515   2.558   9.070
 4559W        W11961  17.298   1.786   0.475
 4560W        W11962   9.195   5.775   2.040
 4561W        W11963  12.212   2.491   7.497
 4562W        W11964  10.819   0.053   8.605
 4563W        W11965   2.882   5.657   7.963
 4564W        W11966   4.219   3.209   0.165
 4565W        W11967   5.942   4.206   2.339
 4566W        W11968   5.661   3.036   9.918
 4567W        W11969  14.919   7.232   8.799
 4568W        W11970   2.546   1.224   7.638
 4569W        W11971  19.306   4.844   1.853
 4570W        W11972   2.380   9.622   7.436
 4571W        W11973  13.514   7.852   7.718
 4572W        W11974  14.626   0.131   1.934
 4573W        W11975  17.566   8.477   1.154
 4574W        W11976   9.556   0.596   7.904
 4575W        W11977  15.119   4.815   1.784
 4576W        W11978  10.500   6.055   1.763
 4577W        W11979  18.570   7.609   0.581
 4578W        W11980   8.255   2.779   0.845
 4579W        W11981   5.675   4.867   7.707
 4580W        W11982   6.710   7.827   8.729
 4581W        W11983  16.731   6.864   9.446
 4582W        W11984   8.177   2.664   0.025
 4583W        W11985  18.758   5.484   8.334
 4584W        W11986   2.704   8.044   0.946
 4585W        W11987   0.794   1.194   8.142
 4586W        W11988   2.239   4.896   8.601
 4587W        W11989   4.857   0.725   1.256
 4588W        W11990   9.045   7.915   1.001
 4589W        W11991  11.555   3.013   8.969
 4590W        W11992   4.822   2.562   8.633
 4591W        W11993  13.615   4.688   1.076
 4592W        W11994  13.335   1.055   2.442
 4593W        W11995  15.432   1.930   1.498
 4594W        W11996  19.003   9.330   8.509
 4595W        W11997   7.710   3.606   1.242
 4596W        W11998  16.586   3.759   9.612
 4597W        W11999  12.655   0.057   8.274
 4598W        W12000   4.685   2.583   1.044
 4599W        W12001  10.640   8.278   0.813
 4600W        W12002  18.760   5.514   8.857
 4601W        W12003   2.190   4.695   2.265
 4602W        W12004   2.897   1.061   1.776
 4603W        W12005   5.857   4.594   8.794
 4604W        W12006   9.079   2.809   0.284
 4605W        W12007   1.589   8.205   0.928
 4606W        W12008   4.953   0.355   7.985
 4607W        W12009   1.577   1.598   9.973
 4608W        W12010  12.830   4.764   0.923
 4609W        W12011  13.464   2.208   9.512
 4610W        W12012   5.087   8.156   2.128
 4611W        W12013   8.705   4.066   8.378
 4612W        W12014  17.776   9.773   7.946
 4613W        W12015   0.238   2.444   8.446
 4614W        W12016   0.543   4.319   9.943
 4615W        W12017  17.534   3.408   7.880
 4616W        W12018   7.269   3.205   9.321
 4617W        W12019  18.591   9.239   0.344
 4618W        W12020   2.095   7.021   8.936
 4619W        W12021   0.744   4.835   0.475
 4620W        W12022  17.269   8.963   0.252
 4621W        W12023   9.997   3.826   2.394
 4622W        W12024   1.800   3.445   9.306
 4623W        W12025  16.664   6.510   9.047
 4624W        W12026  16.713   5.375   9.760
 4625W        W12027   0.360   7.659   9.754
 4626W        W12028  11.828   4.717   0.903
 4627W        W12029   1.114   1.663   0.854
 4628W        W12030   1.576   3.504   0.716
 4629W        W12031  11.417   5.875   2.173
 4630W        W12032  13.406   5.647   0.816
 4631W        W12033  13.777   0.878   9.922
 4632W        W12034  10.430   7.420   1.394
 4633W        W12035  16.717   7.361   1.288
 4634W        W12036  11.062   5.977   8.872
 4635W        W12037   9.846   6.623   2.004
 4636W        W12038   2.780   7.167   0.087
 4637W        W12039  11.119   7.525   1.948
 4638W        W12040   9.662   2.743   0.741
 4639W        W12041  15.344   5.082   9.967
 4640W        W12042   4.795   0.783   8.260
 4641W        W12043   4.119   8.919   1.445
 4642W        W12044   8.112   5.633   7.967
 4643W        W12045  12.319   8.682   2.431
 4644W        W12046  11.662   8.168   0.725
 4645W        W12047  16.290   2.480   0.206
 4646W        W12048   9.897   4.790   9.390
 4647W        W12049  16.334   1.653   8.601
 4648W        W12050   3.989   5.014   8.605
 4649W        W12051  13.035   7.563   7.663
 4650W        W12052   3.683   2.072   1.109
 4651W        W12053   5.405   9.214   8.454
 4652W        W12054   5.985   7.274   9.098
 4653W        W12055   0.847   9.801   0.904
 4654W        W12056   2.044   4.621   9.017
 4655W        W12057   7.860   9.203   9.282
 4656W        W12058  11.084   9.569   9.838
 4657W        W12059   4.241   6.492   8.286
 4658W        W12060   3.373   4.876   7.792
 4659W        W12061   8.698   5.400   9.895
 4660W        W12062   4.599   6.877   8.222
 4661W        W12063   3.772   7.345   9.867
 4662W        W12064  17.032   7.437   1.686
 4663W        W12065   3.832   3.631   0.528
 4664W        W12066  15.296   3.041   0.389
 4665W        W12067  19.418   8.176   9.253
 4666W        W12068   3.033   0.354   7.841
 4667W        W12069  17.335   3.192   0.812
 4668W        W12070   6.999   6.505   1.325
 4669W        W12071  16.125   6.740   1.614
 4670W        W12072   7.859   3.229   8.929
 4671W        W12073   6.542   7.328   2.255
 4672W        W12074  13.615   6.758   0.518
 4673W        W12075  12.946   7.387   8.896
 4674W        W12076   5.246   1.804   8.871
 4675W        W12077  14.712   8.867   0.182
 4676W        W12078   1.326   3.946   9.844
 4677W        W12079  13.906   6.312   9.871
 4678W        W12080  19.151   0.708   7.154
 4679W        W12081   0.361   5.692   1.979
 4680W        W12082   8.607   8.021   0.720
 4681W        W12083  16.744   9.582   1.766
 4682W        W12084  17.987   9.482   9.150
 4683W        W12085   0.159   2.119   1.694
 4684W        W12086   9.550   9.754   0.848
 4685W        W12087  18.381   2.448   2.340
 4686W        W12088   7.201   7.550   9.751
 4687W        W12089  12.441   0.805   9.013
 4688W        W12090   3.118   9.188   9.333
 4689W        W12091   4.950   6.853   1.626
 4690W        W12092  19.720   1.050   0.282
 4691W        W12093   4.336   3.932   1.832
 4692W        W12094  16.063   7.121   8.133
 4693W        W12095  17.566   9.316   7.856
 4694W        W12096  11.555   7.264   0.591
 4695W        W12097  18.863   0.335   8.740
 4696W        W12098  10.340   3.601   0.834
 4697W        W12099   9.402   4.939   9.019
 4698W        W12100  19.081   6.058   1.720
 4699W        W12101   0.558   0.759   0.608
 4700W        W12102  16.154   0.818   9.772
 4701W        W12103  14.636   6.070   0.598
 4702W        W12104   4.696   6.985   2.077
 4703W        W12105   1.108   2.838   1.794
 4704W        W12106  19.159   7.667   2.121
 4705W        W12107  15.907   4.112   1.232
 4706W        W12108  18.640   3.064   9.136
 4707W        W12109   3.573   0.305   1.496
 4708W        W12110   1.959   8.829   8.425
 4709W        W12111   4.848   1.400   0.057
 4710W        W12112  18.338   8.173   0.138
 4711W        W12113  17.963   6.367   8.781
 4712W        W12114   3.609   7.694   9.546
 4713W        W12115   2.205   2.316   7.623
 4714W        W12116   3.908   4.040   1.400
 4715W        W12117  19.336   1.869   9.637
 4716W        W12118   9.261   0.874   8.677
 4717W        W12119  17.101   6.191   8.299
 4718W        W12120  12.584   5.458   8.223
 4719W        W12121   8.772   6.938   2.017
 4720W        W12122   6.378   0.895   7.810
 4721W        W12123  13.302   0.859   0.063
 4722W        W12124   1.511   7.687   0.196
 4723W        W12125  13.948   3.709   8.718
 4724W        W12126   3.869   6.200   8.499
 4725W        W12127   3.550   7.765   0.945
 4726W        W12128  12.024   3.564   0.196
 4727W        W12129   3.580   0.459   9.089
 4728W        W12130   9.329   8.008   9.269
 4729W        W12131  14.151   1.045   9.177
 4730W        W12132   7.588   8.239   8.446
 4731W        W12133   4.752   0.053   0.113
 4732W        W12134  12.605   6.130   2.138
 4733W        W12135   4.171   4.907   1.678
 4734W        W12136   9.407   8.348   7.971
 4735W        W12137   9.140   9.348   9.557
 4736W        W12138  13.253   4.987   7.567
 4737W        W12139  16.720   1.177   1.389
 4738W        W12140   6.409   7.122   9.313
 4739W        W12141  12.956   5.708   1.035
 4740W        W12142  16.810   3.059   1.528
 4741W        W12143  18.960   4.182   8.132
 4742W        W12144  14.339   0.648   0.180
 4743W        W12145   2.795   8.213   9.871
 4744W        W12146  19.928   6.737   8.873
 4745W        W12147   1.283   1.340   8.214
 4746W        W12148  15.962   9.495   0.326
 4747W        W12149   7.508   1.533   0.863
 4748W        W12150   4.101   1.187   8.315
 4749W        W12151   5.585   9.870   1.145
 4750W        W12152  15.688   9.272   9.504
 4751W        W12153  12.757   0.383   0.568
 4752W        W12154   3.829   0.761   8.712
 4753W        W12155   6.668   4.184   1.664
 4754W        W12156   1.683   7.264   1.630
 4755W        W12157   2.386   5.654   1.966
 4756W        W12158  19.721   5.760   9.819
 4757W        W12159  16.493   7.344   7.933
 4758W        W12160   6.962   0.197   2.310
 4759W        W12161   2.334   2.486   0.292
 4760W        W12162  16.390   7.749   0.420
 4761W        W12163  12.784   0.406   1.104
 4762W        W12164  15.752   6.287   9.462
 4763W        W12165  14.206   4.822   7.953
 4764W        W12166  10.449   7.912   2.087
 4765W        W12167   5.527   6.557   8.530
 4766W        W12168  18.301   5.394   0.587
 4767W        W12169   7.262   1.029   9.167
 4768W        W12170   0.384   4.250   8.917
 4769W        W12171  16.336   9.937   9.188
 4770W        W12172   6.321   7.948   0.213
 4771W        W12173   9.070   9.786   8.196
 4772W        W12174  17.262   9.461   0.835
 4773W        W12175   8.992   0.357   0.165
 4774W        W12176  17.289   6.143   2.379
 4775W        W12177   3.582   4.620   9.863
 4776W        W12178   5.710   6.824   2.113
 4777W        W12179  18.715   3.541   9.339
 4778W        W12180  18.312   7.207   0.201
 4779W        W12181  16.027   7.337   9.299
 4780W        W12182   2.269   5.794   0.158
 4781W        W12183  12.493   1.992   2.091
 4782W        W12184   1.550   7.737   2.376
 4783W        W12185   8.231   5.849   0.948
 4784W        W12186  10.714   9.907   0.971
 4785W        W12187   8.731   1.770   7.763
 4786W        W12188   2.083   1.984   0.323
 4787W        W12189  13.370   2.417   7.821
 4788W        W12190  14.449   5.914   8.384
 4789W        W12191  13.910   0.930   1.753
 4790W        W12192   0.700   5.332   1.228
 4791W        W12193   2.928   0.885   8.742
 4792W        W12194  14.352   6.215   2.367
 4793W        W12195  18.901   0.798   9.485
 4794W        W12196  12.138   9.310   8.001
 4795W        W12197   3.847   2.702   1.428
 4796W        W12198   6.387   2.827   1.064
 4797W        W12199  14.381   8.454   0.304
 4798W        W12200   8.040   7.469   9.728
 4799W        W12201   4.244   9.995   8.554
 4800W        W12202  16.883   4.183   9.361
 4801W        W12203   7.501   5.988   2.144
 4802W        W12204   4.187   3.608   1.470
 4803W        W12205  12.050   4.750   2.057
 4804W        W12206  15.833   8.930   7.975
 4805W        W12207   9.066   2.596   7.537
 4806W        W12208  19.174   0.656   7.672
 4807W        W12209   1.798   0.294   9.558
 4808W        W12210   4.153   1.310   9.856
 4809W        W12211   5.039   7.205   9.378
 4810W        W12212   0.703   1.625   9.471
 4811W        W12213  17.422   5.248   2.273
 4812W        W12214  16.744   7.878   1.489
 4813W        W12215  17.993   8.501   8.882
 4814W        W12216  18.355   0.857   1.120
 4815W        W12217  13.339   0.302   1.333
 4816W        W12218   4.684   9.431   7.602
 4817W        W12219  12.905   9.973   0.847
 4818W        W12220  19.968   0.305   0.815
 4819W        W12221   1.025   9.216   9.388
 4820W        W12222  10.987   0.256   2.626
 4821W        W12223   3.223   1.205   9.834
 4822W        W12224   1.111   5.390   0.889
 4823W        W12225  15.997   9.983   8.797
 4824W        W12226   8.033   2.111   2.278
 4825W        W12227   1.264   6.340   8.489
 4826W        W12228   5.441   3.785   9.008
 4827W        W12229  17.115   8.217   1.328
 4828W        W12230  11.379   7.900   9.378
 4829W        W12231   6.922   6.835   0.923
 4830W        W12232  12.129   8.940   0.251
 4831W        W12233   2.872   8.586   1.018
 4832W        W12234  17.960   0.259   8.699
 4833W        W12235   4.263   3.113   1.637
 4834W        W12236  11.049   6.720   2.145
 4835W        W12237   0.199   6.614   8.208
 4836W        W12238   6.078   6.715   1.743
 4837W        W12239  10.636   9.656   2.007
 4838W        W12240   0.269   5.054   9.318
 4839W        W12241   3.218   5.365   7.715
 4840W        W12242   2.531   4.604   8.886
 4841W        W12243   2.320   0.215   8.941
 4842W        W12244   8.795   6.593   7.636
 4843W        W12245  18.856   8.386   7.972
 4844W        W12246   4.370   8.653   0.574
 4845W        W12247   9.309   6.464   0.712
 4846W        W12248  11.043   2.130   1.829
 4847W        W12249   2.201   1.237   0.016
 4848W        W12250  13.981   1.494   0.532
 4849W        W12251   5.628   6.986   8.842
 4850W        W12252  12.551   7.361   1.821
 4851W        W12253   2.518   7.272   9.115
 4852W        W12254  12.528   4.453   8.768
 4853W        W12255  18.380   3.388   8.532
 4854W        W12256  19.803   6.276   1.173
 4855W        W12257   9.262   4.692   9.457
 4856W        W12258   4.608   7.744   0.911
 4857W        W12259  19.468   9.849   1.127
 4858W        W12260   3.392   8.546   1.331
 4859W        W12261  14.554   0.757   7.923
 4860W        W12262  17.798   7.243   0.180
 4861W        W12263  15.588   0.885   8.847
 4862W        W12264   8.018   1.650   2.065
 4863W        W12265  19.552   7.292   9.944
 4864W        W12266   1.147   2.665   9.478
 4865W        W12267  18.404   5.748   2.058
 4866W        W12268   7.707   4.676   1.236
 4867W        W12269   7.375   3.683   0.430
 4868W        W12270   7.629   8.457   2.007
 4869W        W12271  11.700   2.351   7.975
 4870W        W12272   2.602   3.697   9.763
 4871W        W12273   0.687   0.825   1.109
 4872W        W12274  13.654   5.932   8.480
 4873W        W12275  11.008   3.894   1.761
 4874W        W12276  16.215   4.990   9.101
 4875W        W12277   2.038   7.879   1.613
 4876W        W12278   4.831   4.965   1.770
 4877W        W12279  10.876   6.370   7.673
 4878W        W12280  15.010   2.920   8.928
 4879W        W12281  17.992   4.972   1.097
 4880W        W12282   9.873   7.145   8.328
 4881W        W12283   0.796   5.747   2.240
 4882W        W12284   6.273   1.940   9.316
 4883W        W12285   0.519   7.503   8.041
 4884W        W12286   6.223   2.331   1.127
 4885W        W12287   1.359   1.631   1.309
 4886W        W12288  14.893   7.786   0.730
 4887W        W12289  10.525   5.116   9.763
 4888W        W12290   2.796   1.428   2.160
 4889W        W12291   3.697   6.289   7.665
 4890W        W12292   1.742   3.056   8.178
 4891W        W12293   3.789   0.881   9.273
 4892W        W12294   5.813   4.552   0.403
 4893W        W12295   9.032   3.397   1.046
 4894W        W12296  16.802   5.916   7.925
 4895W        W12297   1.611   0.216   0.023
 4896W        W12298  18.584   8.459   0.831
 4897W        W12299   5.113   1.146   9.115
 4898W        W12300   7.466   1.698   1.359
 4899W        W12301   8.974   1.138   1.383
 4900W        W12302   0.230   2.287   9.146
 4901W        W12303  13.371   4.046   9.912
 4902W        W12304  11.096   7.731   9.780
 4903W        W12305   5.728   1.695   8.697
 4904W        W12306  10.624   1.819   1.833
 4905W        W12307  15.231   8.105   7.876
 4906W        W12308  15.507   8.468   9.056
 4907W        W12309   8.154   6.354   1.393
 4908W        W12310   7.905   6.117   9.542
 4909W        W12311   0.175   3.246   9.703
 4910W        W12312  18.912   6.457   8.717
 4911W        W12313   0.055   4.813   1.584
 4912W        W12314   1.369   9.496   9.666
 4913W        W12315   6.272   6.215   1.725
 4914W        W12316   6.935   7.231   0.547
 4915W        W12317  12.320   3.905   0.740
 4916W        W12318  14.440   1.673   9.252
 4917W        W12319  19.315   0.513   1.606
 4918W        W12320  14.661   5.882   1.525
 4919W        W12321  12.362   1.724   1.674
 4920W        W12322  10.406   2.698   7.907
 4921W        W12323  17.897   8.655   1.561
 4922W        W12324   4.666   3.454   1.525
 4923W        W12325  10.415   8.350   1.803
 4924W        W12326  13.006   4.905   9.338
 4925W        W12327   3.361   1.656   8.410
 4926W        W12328   4.580   7.816   0.044
 4927W        W12329  19.812   8.062   0.473
 4928W        W12330   8.763   4.535   9.591
 4929W        W12331   4.945   2.245   0.744
 4930W        W12332  17.344   2.337   1.650
 4931W        W12333  13.538   5.552   8.975
 4932W        W12334   7.014   5.205   0.966
 4933W        W12335   9.200   6.288   9.379
 4934W        W12336  16.877   4.515   0.395
 4935W        W12337  14.307   4.094   9.520
 4936W        W12338  15.321   2.662   8.558
 4937W        W12339   5.092   1.996   9.387
 4938W        W12340  19.887   4.083   7.651
 4939W        W12341   2.192   8.161   9.382
 4940W        W12342   2.361   5.320   2.346
 4941W        W12343  18.931   8.848   8.190
 4942W        W12344  14.999   2.171   1.366
 4943W        W12345   3.732   2.232   1.606
 4944W        W12346  13.039   7.554   1.899
 4945W        W12347   9.619   1.505   9.218
 4946W        W12348   0.590   5.458   9.234
 4947W        W12349   9.509   6.041   8.684
 4948W        W12350  14.670   5.265   0.239
 4949W        W12351  16.881   0.351   9.683
 4950W        W12352  14.834   7.838   8.836
 4951W        W12353   7.931   4.027   9.752
 4952W        W12354  19.892   4.266   8.737
 4953W        W12355  10.040   0.139   0.654
 4954W        W12356   6.263   5.557   1.113
 4955W        W12357   0.899   6.094   8.115
 4956W        W12358   4.712   5.217   8.069
 4957W        W12359  13.207   1.109   7.564
 4958W        W12360   4.544   0.368   8.797
 4959W        W12361  17.479   0.283   7.911
 4960W        W12362   3.206   5.650   9.931
 4961W        W12363  18.250   2.392   7.615
 4962W        W12364   7.572   8.235   7.921
 4963W        W12365  14.867   5.854   8.049
 4964W        W12366  11.071   9.146   8.916
 4965W        W12367  17.043   0.347   8.188
 4966W        W12368  16.029   8.985   9.793
 4967W        W12369   3.660   6.158   8.953
 4968W        W12370   8.104   3.453   2.049
 4969W        W12371   3.157   6.520   1.793
 4970W        W12372  12.665   4.607   9.691
 4971W        W12373   6.762   8.761   9.205
 4972W        W12374   2.273   3.061   8.640
 4973W        W12375  14.317   2.227   2.122
 4974W        W12376  13.771   1.038   8.580
 4975W        W12377  17.560   1.154   8.173
 4976W        W12378  19.292   8.403   2.567
 4977W        W12379   3.154   1.198   8.341
 4978W        W12380   1.911   9.275   8.678
 4979W        W12381   1.086   6.421   7.553
 4980W        W12382   4.523   7.328   0.264
 4981W        W12383  13.370   5.936   9.379
 4982W        W12384  19.360   2.000   7.982
 4983W        W12385  13.216   7.934   1.546
 4984W        W12386  14.688   0.204   9.179
 4985W        W12387  15.752   6.837   8.424
 4986W        W12388  13.521   3.535   8.444
 4987W        W12389   2.097   2.675   8.328
 4988W        W12390   6.927   3.085   9.690
 4989W        W12391  15.636   4.936   0.786
 4990W        W12392  16.055   6.867   1.113
 4991W        W12393  19.364   1.017   9.483
 4992W        W12394  12.903   0.807   0.819
 4993W        W12395   4.698   0.418   1.860
 4994W        W12396  18.928   8.856   8.716
 4995W        W12397  10.010   1.172   8.218
 4996W        W12398  18.404   0.023   1.691
 4997W        W12399  10.129   9.737   1.656
 4998W        W12400  15.500   5.846   9.250
 4999W        W12401   1.094   5.332   2.338
 5000W        W12402   1.212   7.248   0.162
 5001W        W12403   7.662   2.620   9.831
 5002W        W12404  10.463   5.749   1.325
 5003W        W12405   7.696   7.668   1.878
 5004W        W12406  19.392   4.090   2.272
 5005W        W12407  15.956   5.709   0.154
 5006W        W12408  10.768   8.695   1.635
 5007W        W12409   9.967   6.192   8.425
 5008W        W12410   6.288   6.322   0.769
 5009W        W12411   6.204   7.101   0.504
 5010W        W12412  10.757   5.181   9.322
 5011W        W12413  14.339   5.405   0.652
 5012W        W12414   7.310   3.989   7.740
 5013W        W12415   3.053   7.106   7.952
 5014W        W12416   6.277   8.500   9.641
 5015W        W12417   8.713   0.211   1.642
 5016W        W12418   8.461   2.344   9.630
 5017W        W12419  11.441   7.907   8.513
 5018W        W12420  11.300   4.718   0.108
 5019W        W12421  19.745   2.165   0.856
 5020W        W12422   7.067   1.718   0.688
 5021W        W12423  17.856   8.567   7.582
 5022W        W12424   5.910   9.474   1.043
 5023W        W12425   6.988   8.888   1.958
 5024W        W12426   7.065   7.937   7.480
 5025W        W12427  11.305   6.905   0.271
 5026W        W12428   0.326   1.582   0.452
 5027W        W12429  14.504   3.535   0.230
 5028W        W12430   0.538   9.646   8.474
 5029W        W12431   0.073   3.901   1.685
 5030W        W12432   8.621   7.215   1.362
 5031W        W12433  19.314   8.231   9.761
 5032W        W12434  11.026   9.846   2.316
 5033W        W12435   1.156   2.843   2.317
 5034W        W12436  12.913   8.707   0.632
 5035W        W12437  15.272   7.493   0.923
 5036W        W12438   2.086   9.650   1.057
 5037W        W12439   7.600   2.264   2.038
 5038W        W12440  18.258   7.656   8.794
 5039W        W12441   3.337   3.268   9.767
 5040W        W12442  11.807   9.255   8.393
 5041W        W12443  12.418   8.158   9.749
 5042W        W12444   4.592   7.584   8.760
 5043W        W12445   4.424   4.066   1.334
 5044W        W12446  12.334   3.377   2.049
 5045W        W12447  10.233   9.948   1.166
 5046W        W12448   5.519   0.364   1.254
 5047W        W12449  19.570   6.712   1.247
 5048W        W12450   6.234   3.176   2.110
 5049W        W12451   8.979   6.801   1.556
 5050W        W12452  10.450   4.425   1.264
 5051W        W12453  10.545   1.597   0.800
 5052W        W12454  18.253   0.626   2.398
 5053W        W12455   6.949   0.248   8.291
 5054W        W12456   9.764   7.114   1.908
 5055W        W12457   3.827   8.127   2.090
 5056W        W12458   7.941   6.269   2.171
 5057W        W12459   0.282   4.661   0.233
 5058W        W12460   9.960   1.423   0.312
 5059W        W12461  15.334   8.084   1.968
 5060W        W12462  13.293   6.572   8.492
 5061W        W12463  13.340   9.188   9.893
 5062W        W12464   1.725   4.675   1.270
 5063W        W12465  18.110   9.717   2.016
 5064W        W12466   9.813   4.654   8.864
 5065W        W12467   7.469   5.909   9.783
 5066W        W12468  15.188   9.776   1.340
 5067W        W12469  16.589   2.961   7.931
 5068W        W12470   8.162   3.184   8.490
 5069W        W12471   3.022   7.681   1.157
 5070W        W12472  11.877   5.059   7.893
 5071W        W12473  17.847   3.588   1.576
 5072W        W12474  19.247   5.264   0.539
 5073W        W12475  18.362   9.504   1.612
 5074W        W12476  19.754   8.545   0.237
 5075W        W12477   5.342   6.745   9.473
 5076W        W12478   9.155   9.261   9.031
 5077W        W12479   2.331   7.539   8.000
 5078W        W12480   2.804   5.989   9.270
 5079W        W12481  12.862   8.421   9.784
 5080W        W12482  11.464   9.406   3.006
 5081W        W12483   5.376   0.736   1.932
 5082W        W12484  17.611   4.068   0.520
 5083W        W12485  13.489   3.056   9.721
 5084W        W12486  17.942   0.209   8.163
 5085W        W12487  10.661   0.731   0.582
 5086W        W12488  16.299   5.776   7.945
 5087W        W12489   3.236   6.658   2.278
 5088W        W12490  14.291   3.579   0.691
 5089W        W12491   1.222   8.759   0.334
 5090W        W12492   1.589   6.916   8.967
 5091W        W12493   5.514   8.110   1.804
 5092W        W12494   5.284   6.874   0.306
 5093W        W12495  19.216   0.699   8.683
 5094W        W12496  14.399   0.980   1.581
 5095W        W12497   4.393   8.749   9.706
 5096W        W12498  15.987   8.146   8.272
 5097W        W12499  16.267   8.012   7.843
 5098W        W12500  11.583   6.495   9.223
 5099W        W12501   4.608   3.022   9.374
 5100W        W12502   4.991   4.789   9.930
 5101W        W12503   1.923   5.089   2.495
 5102W        W12504   8.166   0.921   0.004
 5103W        W12505  16.186   4.961   1.623
 5104W        W12506  11.922   2.782   7.830
 5105W        W12507   3.935   6.015   0.694
 5106W        W12508   0.185   2.747   8.883
 5107W        W12509   0.453   4.517   1.676
 5108W        W12510   6.701   5.981   1.948
 5109W        W12511  17.598   9.251   9.951
 5110W        W12512  11.679   9.038   0.976
 5111W        W12513   4.174   7.299   1.691
 5112W        W12514  13.203   6.953   8.853
 5113W        W12515  18.453   6.243   0.061
 5114W        W12516  17.529   6.439   8.512
 5115W        W12517   2.047   8.787   1.930
 5116W        W12518   9.070   1.355   9.246
 5117W        W12519  11.727   5.180   8.926
 5118W        W12520   3.398   7.340   1.209
 5119W        W12521  14.362   1.664   0.149
 5120W        W12522  12.128   2.086   0.757
 5121W        W12523  16.249   1.284   9.503
 5122W        W12524  16.405   4.475   1.710
 5123W        W12525   0.733   1.446   2.084
 5124W        W12526  17.278   7.776   2.333
 5125W        W12527  19.071   0.461   2.286
 5126W        W12528  12.708   5.634   7.739
 5127W        W12529  13.185   0.439   9.753
 5128W        W12530   0.678   5.630   8.210
 5129W        W12531  19.692   9.882   8.312
 5130W        W12532   8.473   2.683   2.300
 5131W        W12533   6.571   5.526   2.158
 5132W        W12534  16.299   7.861   2.079
 5133W        W12535  13.352   3.110   0.225
 5134W        W12536  19.864   9.022   8.229
 5135W        W12537  12.816   3.634   9.862
 5136W        W12538  10.074   3.868   7.854
 5137W        W12539   2.465   0.864   1.052
 5138W        W12540  10.380   0.307   8.394
 5139W        W12541  16.324   0.817   8.291
 5140W        W12542   5.945   1.518   2.083
 5141W        W12543   8.065   4.137   9.224
 5142W        W12544  12.294   9.676   2.179
 5143W        W12545  15.027   9.810   9.042
 5144W        W12546  10.820   7.002   9.310
 5145W        W12547   3.814   1.349   2.049
 5146W        W12548  18.687   9.434   9.839
 5147W        W12549  15.476   2.301   2.274
 5148W        W12550  13.773   1.957   2.142
 5149W        W12551   3.503   0.075   1.049
 5150W        W12552   6.502   5.968   9.931
 5151W        W12553   2.700   3.631   1.821
 5152W        W12554   6.559   1.177   8.288
 5153W        W12555  16.200   5.553   1.822
 5154W        W12556   1.774   7.727   0.845
 5155W        W12557   4.975   0.200   0.534
 5156W        W12558  19.584   3.342   8.454
 5157W        W12559   4.845   2.442   7.593
 5158W        W12560   0.959   8.795   9.681
 5159W        W12561  11.266   0.074   7.787
 5160W        W12562  17.064   8.248   2.382
 5161W        W12563  15.299   0.760   8.361
 5162W        W12564   4.533   9.710   9.357
 5163W        W12565  16.157   2.930   9.862
 5164W        W12566  15.806   9.448   0.822
 5165W        W12567   1.626   6.445   7.771
 5166W        W12568  12.969   9.102   8.518
 5167W        W12569  15.383   1.662   8.208
 5168W        W12570  18.072   4.808   9.604
 5169W        W12571   5.330   8.039   0.424
 5170W        W12572  11.084   2.165   9.379
 5171W        W12573  16.851   6.423   0.683
 5172W        W12574   3.353   5.605   8.149
 5173W        W12575  14.823   1.720   7.495
 5174W        W12576   8.172   4.537   8.819
 5175W        W12577  14.698   3.995   0.349
 5176W        W12578   2.275   1.061   0.494
 5177W        W12579  12.352   6.416   9.705
 5178W        W12580   6.072   1.299   8.541
 5179W        W12581  15.529   3.568   9.610
 5180W        W12582   4.264   9.817   1.165
 5181W        W12583   3.084   6.042   8.242
 5182W        W12584  16.839   6.143   2.109
 5183W        W12585   8.182   8.842   1.399
 5184W        W12586  17.060   3.971   8.817
 5185W        W12587  14.899   9.616   0.588
 5186W        W12588   9.567   7.585   8.318
 5187W        W12589   3.805   3.122   1.870
 5188W        W12590  10.268   9.109   2.434
 5189W        W12591   4.246   0.733   8.045
 5190W        W12592   7.478   9.247   0.301
 5191W        W12593   3.668   6.932   1.067
 5192W        W12594   5.342   1.558   0.895
 5193W        W12595   2.390   6.256   2.728
 5194W        W12596  11.646   7.956   0.251
 5195W        W12597  10.708   4.296   8.980
 5196W        W12598  10.547   2.481   0.499
 5197W        W12599   8.379   6.127   0.520
 5198W        W12600   0.302   6.941   0.795
 5199W        W12601  19.341   8.407   8.155
 5200W        W12602   3.249   6.931   0.115
 5201W        W12603   8.943   3.057   1.827
 5202W        W12604  13.295   4.796   0.659
 5203W        W12605   6.937   9.448   1.137
 5204W        W12606   6.690   1.075   9.645
 5205W        W12607   9.864   0.684   9.428
 5206W        W12608  10.516   2.205   1.484
 5207W        W12609  14.881   3.210   1.065
 5208W        W12610   2.876   6.690   1.416
 5209W        W12611   7.257   2.704   9.538
 5210W        W12612  17.207   7.016   1.911
 5211W        W12613   9.655   9.308   9.505
 5212W        W12614   5.821   4.537   1.436
 5213W        W12615  14.417   4.095   9.016
 5214W        W12616  19.926   0.271   8.031
 5215W        W12617  11.390   9.419   0.337
 5216W        W12618  17.763   3.218   8.871
 5217W        W12619   8.662   4.047   2.019
 5218W        W12620  15.713   5.089   8.167
 5219W        W12621  16.985   8.077   9.991
 5220W        W12622  15.862   6.051   7.835
 5221W        W12623  16.159   6.491   8.236
 5222W        W12624   5.838   7.829   1.141
 5223W        W12625   8.895   9.521   2.180
 5224W        W12626   3.807   8.811   8.572
 5225W        W12627   2.668   4.220   7.904
 5226W        W12628  13.433   4.987   9.654
 5227W        W12629  10.627   8.868   8.719
 5228W        W12630   5.377   9.393   1.960
 5229W        W12631   2.947   2.614   1.116
 5230W        W12632  16.419   3.643   9.104
 5231W        W12633   7.547   8.269   0.026
 5232W        W12634  19.545   6.167   0.748
 5233W        W12635   8.479   8.458   0.476
 5234W        W12636  18.262   2.334   1.862
 5235W        W12637  11.489   3.381   9.963
 5236W        W12638   8.864   8.954   9.349
 5237W        W12639   2.654   1.906   2.050
 5238W        W12640   7.235   4.821   1.785
 5239W        W12641   3.479   5.858   8.571
 5240W        W12642   4.769   8.680   0.924
 5241W        W12643  19.741   8.096   8.063
 5242W        W12644  14.164   6.725   0.051
 5243W        W12645  14.633   8.362   8.512
 5244W        W12646  15.716   2.803   1.540
 5245W        W12647  14.721   9.253   9.823
 5246W        W12648   2.811   5.370   2.065
 5247W        W12649   2.320   9.071   9.732
 5248W        W12650  16.449   0.869   2.241
 5249W        W12651   2.128   0.643   0.747
 5250W        W12652  13.909   8.876   7.918
 5251W        W12653   6.124   3.244   9.887
 5252W        W12654   9.458   4.596   0.321
 5253W        W12655   6.757   9.795   9.453
 5254W        W12656  11.924   8.621   0.733
 5255W        W12657   1.489   0.069   7.590
 5256W        W12658  11.917   1.723   8.393
 5257W        W12659   1.205   6.553   0.638
 5258W        W12660   2.885   0.289   2.285
 5259W        W12661   7.752   9.913   9.206
 5260W        W12662  12.344   0.346   1.363
 5261W        W12663  10.458   8.833   8.236
 5262W        W12664  19.224   7.373   7.997
 5263W        W12665   4.230   6.107   1.100
 5264W        W12666  13.404   3.109   9.220
 5265W        W12667   0.974   4.156   1.626
 5266W        W12668   2.572   8.482   9.004
 5267W        W12669   6.342   7.902   1.233
 5268W        W12670   0.716   0.674   9.774
 5269W        W12671  11.501   6.651   2.352
 5270W        W12672  10.352   9.994   8.826
 5271W        W12673  14.770   7.071   8.064
 5272W        W12674  11.878   6.468   8.776
 5273W        W12675   7.193   0.759   1.054
 5274W        W12676   9.289   7.967   1.618
 5275W        W12677  18.400   1.061   7.560
 5276W        W12678  10.852   5.107   7.733
 5277W        W12679  17.474   2.169   0.159
 5278W        W12680   4.808   9.898   7.808
 5279W        W12681  11.162   9.076   9.448
 5280W        W12682   8.340   5.449   1.260
 5281W        W12683  12.618   6.439   9.256
 5282W        W12684   0.932   4.864   2.272
 5283W        W12685  14.162   2.512   9.336
 5284W        W12686  17.384   3.814   1.421
 5285W        W12687  16.822   2.896   8.807
 5286W        W12688   4.872   8.685   9.927
 5287W        W12689   8.527   3.164   2.098
 5288W        W12690   9.458   2.124   9.901
 5289W        W12691  12.721   8.268   9.313
 5290W        W12692   3.713   1.730   2.379
 5291W        W12693  14.899   3.930   2.103
 5292W        W12694  19.016   7.771   0.365
 5293W        W12695  10.625   8.911   0.322
 5294W        W12696   3.102   1.898   8.789
 5295W        W12697   6.729   7.590   0.896
 5296W        W12698   1.616   9.137   1.834
 5297W        W12699  18.590   3.017   1.912
 5298W        W12700  12.935   7.921   9.613
 5299W        W12701  18.204   1.407   1.934
 5300W        W12702   4.855   8.459   9.369
 5301W        W12703  14.490   5.192   2.415
 5302W        W12704  14.216   5.895   9.716
 5303W        W12705   4.138   5.190   8.149
 5304W        W12706  11.728   9.466   0.731
 5305W        W12707  15.511   6.562   9.025
 5306W        W12708  19.649   5.350   1.169
 5307W        W12709   2.290   0.312   1.832
 5308W        W12710  10.640   2.953   8.793
 5309W        W12711   6.622   3.382   9.963
 5310W        W12712  11.529   0.742   0.059
 5311W        W12713   9.484   0.969   1.567
 5312W        W12714   5.873   4.505   1.941
 5313W        W12715   7.889   9.530   2.080
 5314W        W12716   2.784   1.815   2.543
 5315W        W12717  10.509   1.690   8.221
 5316W        W12718  14.886   6.378   9.676
 5317W        W12719  18.451   1.242   9.049
 5318W        W12720  11.977   4.209   1.001
 5319W        W12721   1.982   9.900   7.545
 5320W        W12722   9.151   4.030   2.189
 5321W        W12723  15.214   3.148   9.809
 5322W        W12724   6.594   7.890   9.750
 5323W        W12725   1.596   4.037   7.483
 5324W        W12726  18.973   3.619   7.876
 5325W        W12727  14.398   9.402   8.909
 5326W        W12728  13.744   8.425   8.676
 5327W        W12729  11.223   4.595   1.736
 5328W        W12730   3.222   3.269   8.875
 5329W        W12731  16.533   6.127   8.289
 5330W        W12732   5.125   6.049   7.918
 5331W        W12733   1.577   2.082   9.836
 5332W        W12734   6.095   8.981   1.440
 5333W        W12735  17.695   9.429   8.721
 5334W        W12736   9.252   4.471   8.828
 5335W        W12737  16.916   3.384   9.721
 5336W        W12738   5.958   6.397   8.748
 5337W        W12739  12.948   7.393   9.778
 5338W        W12740  16.130   0.651   1.696
 5339W        W12741  16.435   0.399   9.965
 5340W        W12742   6.058   8.004   9.740
 5341W        W12743  12.155   7.407   8.467
 5342W        W12744   3.497   0.422   8.071
 5343W        W12745  13.213   5.667   8.581
 5344W        W12746   4.035   6.058   9.820
 5345W        W12747  13.406   7.361   0.036
 5346W        W12748   9.818   8.478   0.183
 5347W        W12749  18.215   6.367   1.361
 5348W        W12750   6.822   7.882   0.407
 5349W        W12751   1.759   8.698   1.076
 5350W        W12752   9.416   1.258   9.610
 5351W        W12753   5.817   4.865   9.995
 5352W        W12754   4.621   8.212   0.694
 5353W        W12755  17.364   3.871   0.108
 5354W        W12756   0.272   5.009   0.688
 5355W        W12757  14.513   0.862   1.077
 5356W        W12758   7.969   0.215   0.766
 5357W        W12759   3.279   3.440   8.373
 5358W        W12760   2.341   3.076   0.893
 5359W        W12761   0.752   8.757   9.210
 5360W        W12762  15.411   5.444   9.612
 5361W        W12763   5.670   8.574   1.956
 5362W        W12764  11.070   5.583   7.741
 5363W        W12765  11.519   6.453   1.039
 5364W        W12766  16.552   7.272   0.311
 5365W        W12767  13.142   2.183   0.172
 5366W        W12768   2.051   9.952   9.285
 5367W        W12769  12.016   8.353   0.300
 5368W        W12770   8.073   1.265   2.388
 5369W        W12771  17.854   7.331   8.200
 5370W        W12772   5.768   6.946   1.246
 5371W        W12773  13.822   0.596   0.907
 5372W        W12774   4.059   0.438   1.654
 5373W        W12775   6.299   5.963   9.431
 5374W        W12776   3.862   2.710   2.810
 5375W        W12777   3.431   9.879   0.578
 5376W        W12778  17.316   4.378   0.162
 5377W        W12779  17.100   9.986   0.462
 5378W        W12780  19.991   2.007   8.364
 5379W        W12781   9.200   2.444   0.729
 5380W        W12782   5.210   2.673   1.135
 5381W        W12783  11.541   7.652   7.647
 5382W        W12784  15.264   9.754   9.896
 5383W        W12785  16.736   1.230   9.406
 5384W        W12786   3.153   6.323   9.002
 5385W        W12787  19.773   3.090   0.732
 5386W        W12788  17.432   6.579   2.101
 5387W        W12789  10.009   3.601   8.293
 5388W        W12790  10.761   4.743   1.575
 5389W        W12791  18.902   4.213   8.636
 5390W        W12792  19.045   3.154   2.089
 5391W        W12793  18.406   3.136   0.765
 5392W        W12794  11.790   1.216   1.033
 5393W        W12795   4.513   6.381   0.286
 5394W        W12796   7.782   3.516   0.684
 5395W        W12797   5.095   7.420   8.884
 5396W        W12798   8.459   3.021   9.702
 5397W        W12799  15.552   8.422   0.320
 5398W        W12800   2.201   7.245   8.475
 5399W        W12801   4.210   0.380   9.914
 5400W        W12802  13.379   7.668   9.641
 5401W        W12803  17.472   2.278   0.648
 5402W        W12804   8.183   5.024   2.065
 5403W        W12805   3.463   6.913   0.593
 5404W        W12806  14.328   4.165   1.287
 5405W        W12807   1.121   9.723   9.281
 5406W        W12808  19.705   4.436   1.047
 5407W        W12809   7.146   7.987   9.491
 5408W        W12810  10.004   2.779   1.719
 5409W        W12811   0.157   7.815   1.344
 5410W        W12812  19.084   1.322   2.239
 5411W        W12813   3.645   9.193   9.487
 5412W        W12814  12.804   1.755   1.306
 5413W        W12815   7.695   1.811   9.190
 5414W        W12816   3.301   5.868   9.202
 5415W        W12817   6.997   3.516   8.387
 5416W        W12818  12.378   6.921   9.181
 5417W        W12819  18.859   1.794   9.886
 5418W        W12820   4.633   6.090   8.952
 5419W        W12821   3.762   4.891   0.264
 5420W        W12822   8.242   0.221   1.911
 5421W        W12823   6.416   9.465   9.250
 5422W        W12824   7.233   8.901   8.978
 5423W        W12825  18.200   9.761   8.233
 5424W        W12826   7.137   4.528   9.850
 5425W        W12827  16.185   4.351   2.223
 5426W        W12828  13.389   2.046   2.522
 5427W        W12829   5.013   6.069   2.183
 5428W        W12830  12.455   5.067   7.555
 5429W        W12831  18.406   8.941   0.737
 5430W        W12832  10.391   9.309   1.455
 5431W        W12833   4.600   5.427   1.587
 5432W        W12834  16.212   1.443   7.599
 5433W        W12835  12.161   5.595   1.054
 5434W        W12836   3.644   7.509   9.012
 5435W        W12837  11.543   3.409   1.979
 5436W        W12838   6.204   9.847   0.320
 5437W        W12839  18.830   3.980   9.082
 5438W        W12840   0.098   3.563   9.303
 5439W        W12841  12.615   9.355   8.825
 5440W        W12842   2.787   4.604   1.646
 5441W        W12843  18.982   1.318   1.624
 5442W        W12844   2.662   6.555   0.828
 5443W        W12845   0.745   6.141   8.615
 5444W        W12846  10.642   1.786   2.353
 5445W        W12847  15.605   3.007   8.271
 5446W        W12848  14.187   3.255   8.678
 5447W        W12849  15.486   8.104   8.413
 5448W        W12850  12.050   9.877   0.827
 5449W        W12851   6.270   1.903   0.293
 5450W        W12852   7.762   1.194   9.061
 5451W        W12853   3.447   1.617   1.208
 5452W        W12854  11.313   2.048   8.896
 5453W        W12855   1.725   3.979   7.978
 5454W        W12856  15.840   8.911   0.749
 5455W        W12857   8.747   1.671   8.849
 5456W        W12858  17.866   3.845   2.300
 5457W        W12859   1.147   5.039   9.804
 5458W        W12860  12.351   7.198   7.688
 5459W        W12861   1.496   9.711   0.122
 5460W        W12862   2.566   2.709   8.027
 5461W        W12863   1.451   0.785   1.104
 5462W        W12864  19.619   1.663   0.911
 5463W        W12865   7.713   3.470   7.735
 5464W        W12866   0.642   1.348   1.263
 5465W        W12867   2.274   3.139   8.151
 5466W        W12868   5.774   7.643   9.416
 5467W        W12869   6.927   5.202   8.145
 5468W        W12870  10.230   3.699   0.084
 5469W        W12871   2.217   8.906   8.907
 5470W        W12872  10.806   0.009   9.608
 5471W        W12873   7.791   3.972   0.911
 5472W        W12874  18.934   5.082   8.590
 5473W        W12875  17.346   1.910   2.001
 5474W        W12876   5.280   2.333   0.223
 5475W        W12877   7.257   2.655   2.609
 5476W        W12878   6.657   8.058   7.794
 5477W        W12879   0.092   4.605   2.409
 5478W        W12880  17.608   8.136   8.826
 5479W        W12881   4.867   9.134   1.155
 5480W        W12882   0.373   7.491   2.175
 5481W        W12883  14.489   9.928   7.497
 5482W        W12884  14.486   5.472   8.675
 5483W        W12885   9.310   0.911   7.575
 5484W        W12886   7.312   3.180   0.608
 5485W        W12887  17.478   6.813   0.274
 5486W        W12888  10.267   2.700   9.717
 5487W        W12889  16.537   7.037   8.336
 5488W        W12890   2.455   7.236   7.573
 5489W        W12891   5.369   0.712   9.760
 5490W        W12892   1.195   6.998   1.617
 5491W        W12893   8.931   2.899   2.313
 5492W        W12894  10.574   3.927   9.310
 5493W        W12895   5.532   3.641   0.013
 5494W        W12896  10.610   2.072   0.960
 5495W        W12897   6.002   3.098   0.726
 5496W        W12898   0.383   8.943   9.512
 5497W        W12899  13.567   2.444   2.800
 5498W        W12900   1.085   3.388   0.642
 5499W        W12901   7.528   8.200   7.399
 5500W        W12902   4.603   4.875   9.555
 5501W        W12903   8.787   0.967   2.199
 5502W        W12904  16.617   0.142   1.760
 5503W        W12905  18.176   1.989   8.334
 5504W        W12906  19.935   7.727   2.333
 5505W        W12907  12.027   6.112   1.725
 5506W        W12908   1.873   0.579   1.647
 5507W        W12909   4.728   2.994   1.801
 5508W        W12910   4.190   2.775   1.045
 5509W        W12911   6.471   2.881   0.004
 5510W        W12912  13.798   7.182   2.479
 5511W        W12913  12.569   2.142   1.017
 5512W        W12914   3.457   7.846   1.420
 5513W        W12915   2.330   4.241   9.198
 5514W        W12916  19.791   4.861   9.427
 5515W        W12917   9.620   5.086   8.541
 5516W        W12918   0.520   0.317   7.735
 5517W        W12919   8.622   6.661   0.630
 5518W        W12920  14.861   0.530   0.240
 5519W        W12921   5.544   1.348   2.347
 5520W        W12922   3.665   0.401   9.918
 5521W        W12923  13.142   9.809   8.381
 5522W        W12924   1.025   9.212   2.270
 5523W        W12925   6.278   7.710   8.443
 5524W        W12926   3.832   2.997   2.354
 5525W        W12927   8.482   7.279   9.985
 5526W        W12928   4.270   3.298   8.778
 5527W        W12929  14.631   9.992   8.300
 5528W        W12930  18.919   6.564   1.766
 5529W        W12931  13.906   2.060   9.271
 5530W        W12932   6.602   1.112   1.109
 5531W        W12933   2.770   8.588   9.489
 5532W        W12934   6.710   9.912   7.991
 5533W        W12935  18.725   6.699   0.017
 5534W        W12936   3.048   9.017   0.275
 5535W        W12937   2.852   3.652   8.159
 5536W        W12938  12.122   2.186   8.434
 5537W        W12939  11.025   1.670   1.020
 5538W        W12940  17.641   2.979   7.591
 5539W        W12941   4.036   5.393   0.203
 5540W        W12942   7.065   6.579   8.743
 5541W        W12943   0.690   2.824   2.108
 5542W        W12944   2.999   5.308   0.350
 5543W        W12945   1.061   0.681   0.776
 5544W        W12946  18.997   4.152   7.625
 5545W        W12947  17.907   2.681   7.929
 5546W        W12948   1.667   7.294   2.626
 5547W        W12949   0.825   0.236   0.611
 5548W        W12950   4.546   6.343   9.408
 5549W        W12951   2.457   4.533   8.284
 5550W        W12952  15.090   8.348   8.757
 5551W        W12953   2.932   6.461   0.217
 5552W        W12954  11.675   8.855   1.799
 5553W        W12955  16.970   2.910   8.277
 5554W        W12956   8.779   6.518   9.163
 5555W        W12957  16.901   2.063   1.801
 5556W        W12958   3.390   0.907   8.945
 5557W        W12959   0.572   1.572   7.885
 5558W        W12960  14.642   1.861   9.756
 5559W        W12961   0.554   7.955   0.137
 5560W        W12962  12.321   6.094   1.188
 5561W        W12963  18.801   4.437   9.302
 5562W        W12964   9.571   0.958   8.287
 5563W        W12965  18.642   1.732   0.878
 5564W        W12966  12.464   9.475   0.836
 5565W        W12967   0.213   0.620   9.604
 5566W        W12968   6.299   6.440   2.560
 5567W        W12969  13.397   3.401   1.953
 5568W        W12970   6.681   4.296   0.034
 5569W        W12971  18.477   1.375   0.509
 5570W        W12972  16.019   7.051   7.614
 5571W        W12973   7.776   1.787   9.693
 5572W        W12974  16.306   8.531   8.422
 5573W        W12975   6.725   4.003   2.187
 5574W        W12976  12.635   2.142   0.117
 5575W        W12977  16.267   8.095   8.752
 5576W        W12978   4.347   4.483   9.350
 5577W        W12979  10.522   7.269   0.545
 5578W        W12980   5.195   6.397   1.701
 5579W        W12981   8.551   0.487   9.341
 5580W        W12982   6.202   4.150   9.863
 5581W        W12983  18.557   3.923   7.890
 5582W        W12984  11.509   9.599   7.792
 5583W        W12985   8.535   1.079   1.091
 5584W        W12986  13.850   2.614   1.566
 5585W        W12987  13.025   2.267   1.254
 5586W        W12988   9.084   8.755   8.915
 5587W        W12989   2.215   5.741   0.653
 5588W        W12990   8.867   5.281   7.729
 5589W        W12991   4.479   0.833   2.100
 5590W        W12992  10.257   1.966   0.562
 5591W        W12993   8.642   4.942   2.262
 5592W        W12994   9.449   5.598   0.354
 5593W        W12995  18.727   0.772   8.466
 5594W        W12996  14.191   6.110   1.567
 5595W        W12997  17.761   6.774   0.752
 5596W        W12998  15.835   1.567   9.349
 5597W        W12999  12.895   1.746   0.327
 5598W        W13000   7.910   4.364   0.132
 5599W        W13001  16.086   0.702   8.833
 5600W        W13002   3.231   5.160   9.747
 5601W        W13003  10.568   6.879   2.064
 5602W        W13004  15.769   1.088   9.547
 5603W        W13005  17.909   7.561   7.688
 5604W        W13006  12.447   2.880   7.712
 5605W        W13007  13.600   1.203   0.324
 5606W        W13008   3.296   3.946   0.626
 5607W        W13009   4.248   5.211   1.271
 5608W        W13010   5.908   2.691   8.319
 5609W        W13011   8.732   2.116   9.253
 5610W        W13012   5.801   6.025   9.164
 5611W        W13013   1.571   0.019   9.138
 5612W        W13014  16.913   0.744   9.281
 5613W        W13015  13.453   1.137   1.936
 5614W        W13016  14.311   5.055   8.947
 5615W        W13017  17.407   1.412   2.074
 5616W        W13018  12.099   2.148   1.262
 5617W        W13019   4.459   2.759   0.081
 5618W        W13020   2.611   5.082   0.765
 5619W        W13021   4.507   4.716   2.149
 5620W        W13022   2.043   8.417   8.942
 5621W        W13023   7.909   2.602   8.278
 5622W        W13024   2.570   3.794   9.239
 5623W        W13025  19.125   2.802   1.275
 5624W        W13026   3.711   4.588   1.608
 5625W        W13027  16.512   5.634   8.384
 5626W        W13028   5.918   5.855   1.676
 5627W        W13029   6.477   5.401   8.021
 5628W        W13030  15.867   8.187   7.576
 5629W        W13031  12.202   8.296   9.303
 5630W        W13032  17.034   1.234   7.846
 5631W        W13033   9.871   8.303   8.882
 5632W        W13034  19.705   4.663   8.433
 5633W        W13035  19.813   4.394   0.241
 5634W        W13036  14.721   5.911   9.889
 5635W        W13037   1.110   3.106   8.958
 5636W        W13038   1.830   8.428   0.099
 5637W        W13039  19.464   4.463   0.604
 5638W        W13040  18.715   2.998   8.643
 5639W        W13041  15.151   0.629   8.870
 5640W        W13042  16.457   0.375   8.929
 5641W        W13043  11.748   1.197   1.526
 5642W        W13044  11.416   2.460   9.790
 5643W        W13045   2.440   6.279   9.487
 5644W        W13046   6.085   0.450   9.532
 5645W        W13047   3.863   4.660   0.715
 5646W        W13048  15.584   1.235   0.462
 5647W        W13049  16.799   2.520   9.985
 5648W        W13050  10.784   4.429   7.650
 5649W        W13051  10.351   1.168   1.634
 5650W        W13052  10.388   5.056   1.851
 5651W        W13053  11.435   2.546   0.638
 5652W        W13054   8.404   6.845   8.149
 5653W        W13055  17.938   4.664   7.730
 5654W        W13056  16.500   8.546   8.913
 5655W        W13057  11.063   6.539   9.265
 5656W        W13058   0.381   3.296   8.126
 5657W        W13059  17.534   0.596   1.626
 5658W        W13060   6.273   8.513   1.528
 5659W        W13061  15.256   0.166   8.643
 5660W        W13062  13.620   3.842   1.741
 5661W        W13063   3.191   4.418   1.363
 5662W        W13064  11.855   3.657   7.903
 5663W        W13065  18.187   4.488   1.204
 5664W        W13066   4.842   0.131   9.251
 5665W        W13067  18.903   7.217   2.151
 5666W        W13068  15.273   3.046   1.371
 5667W        W13069  12.866   6.037   0.276
 5668W        W13070  14.855   1.464   9.475
 5669W        W13071  11.549   0.651   9.060
 5670W        W13072  17.664   1.260   9.179
 5671W        W13073   7.909   8.888   1.910
 5672W        W13074   5.328   7.424   9.769
 5673W        W13075   9.319   7.051   8.215
 5674W        W13076  19.387   1.077   8.971
 5675W        W13077  14.152   4.005   7.971
 5676W        W13078   1.147   3.805   7.874
 5677W        W13079  10.149   5.456   7.845
 5678W        W13080   6.030   1.350   9.590
 5679W        W13081   3.240   0.640   1.669
 5680W        W13082  17.971   9.835   1.483
 5681W        W13083   1.368   0.439   7.936
 5682W        W13084   0.194   2.244   1.116
 5683W        W13085   1.054   4.373   9.812
 5684W        W13086  12.651   3.386   0.561
 5685W        W13087  15.859   4.417   9.887
 5686W        W13088  13.645   1.181   8.110
 5687W        W13089   7.981   7.020   9.484
 5688W        W13090   3.911   8.057   9.357
 5689W        W13091   1.644   6.818   1.885
 5690W        W13092   2.722   8.945   0.669
 5691W        W13093   8.607   0.832   9.707
 5692W        W13094   3.544   3.879   1.067
 5693W        W13095   1.812   6.786   9.398
 5694W        W13096   6.277   7.603   9.460
 5695W        W13097   3.102   2.955   8.245
 5696W        W13098  12.067   8.525   1.604
 5697W        W13099  13.881   9.136   1.414
 5698W        W13100  14.586   4.829   1.782
 5699W        W13101   6.368   2.082   7.998
 5700W        W13102  12.825   3.616   7.545
 5701W        W13103  17.730   1.716   8.870
 5702W        W13104   0.611   4.701   8.060
 5703W        W13105  14.684   4.977   8.117
 5704W        W13106   6.731   9.342   0.659
 5705W        W13107  15.090   1.139   0.349
 5706W        W13108  13.235   1.093   8.592
 5707W        W13109   5.272   5.306   2.559
 5708W        W13110  16.553   4.596   9.278
 5709W        W13111   5.028   7.320   0.212
 5710W        W13112   5.797   2.129   1.426
 5711W        W13113  16.750   6.913   0.827
 5712W        W13114   8.098   0.471   9.076
 5713W        W13115  14.049   5.685   8.874
 5714W        W13116   8.435   0.411   0.635
 5715W        W13117  19.667   5.181   1.657
 5716W        W13118  13.403   0.144   8.855
 5717W        W13119  15.726   5.828   9.719
 5718W        W13120   0.608   6.944   1.268
 5719W        W13121  11.927   1.751   2.039
 5720W        W13122  14.479   6.482   1.368
 5721W        W13123   8.531   9.602   8.790
 5722W        W13124  15.120   3.597   2.440
 5723W        W13125   0.285   1.769   2.084
 5724W        W13126  13.985   9.869   2.493
 5725W        W13127   7.711   3.300   0.231
 5726W        W13128   5.976   3.407   8.281
 5727W        W13129  18.795   8.744   0.474
 5728W        W13130  14.427   8.235   0.777
 5729W        W13131  14.841   7.762   7.930
 5730W        W13132   1.980   5.558   8.906
 5731W        W13133   7.315   5.450   0.038
 5732W        W13134   8.456   0.338   8.373
 5733W        W13135   6.083   4.068   7.664
 5734W        W13136   9.283   5.012   0.558
 5735W        W13137   8.694   9.618   0.459
 5736W        W13138   5.467   0.231   0.745
 5737W        W13139  15.658   8.042   9.971
 5738W        W13140   4.005   7.090   2.155
 5739W        W13141   0.418   9.721   1.929
 5740W        W13142   8.565   3.155   1.032
 5741W        W13143  18.678   7.789   9.072
 5742W        W13144  15.840   3.345   0.757
 5743W        W13145   9.891   5.142   8.991
 5744W        W13146  15.869   0.872   0.215
 5745W        W13147   5.822   7.006   7.951
 5746W        W13148  13.386   1.670   0.218
 5747W        W13149  12.494   8.704   9.493
 5748W        W13150  15.782   3.232   1.267
 5749W        W13151   7.540   7.321   7.950
 5750W        W13152   2.699   1.264   8.137
 5751W        W13153  16.111   7.287   8.637
 5752W        W13154  17.515   7.041   1.105
 5753W        W13155  10.272   9.456   8.751
 5754W        W13156  14.048   2.604   8.410
 5755W        W13157   8.256   1.280   8.865
 5756W        W13158  16.773   8.428   0.947
 5757W        W13159   0.563   1.516   9.998
 5758W        W13160  14.960   6.306   1.540
 5759W        W13161   2.399   5.968   7.871
 5760W        W13162  15.678   1.634   0.799
 5761W        W13163   6.596   1.553   0.850
 5762W        W13164  11.846   6.979   8.327
 5763W        W13165  18.447   5.889   0.439
 5764W        W13166   7.281   0.306   1.926
 5765W        W13167  14.879   2.691   1.224
 5766W        W13168  11.888   0.360   1.610
 5767W        W13169  13.410   4.462   8.877
 5768W        W13170   5.279   4.024   1.400
 5769W        W13171   6.992   5.610   7.166
 5770W        W13172   9.302   2.037   0.436
 5771W        W13173   2.592   6.940   8.730
 5772W        W13174  18.496   6.833   9.363
 5773W        W13175  14.156   8.357   8.324
 5774W        W13176  15.853   4.669   0.386
 5775W        W13177   2.717   1.106   9.154
 5776W        W13178   2.519   2.921   9.410
 5777W        W13179   0.332   8.327   2.127
 5778W        W13180   9.633   8.756   8.915
 5779W        W13181  16.886   0.243   9.170
 5780W        W13182   7.202   8.922   9.476
 5781W        W13183   4.017   1.993   7.639
 5782W        W13184  16.031   1.146   2.204
 5783W        W13185   8.951   9.261   0.183
 5784W        W13186  12.869   0.827   0.313
 5785W        W13187  11.704   1.231   8.397
 5786W        W13188   1.991   9.259   2.140
 5787W        W13189   7.139   2.273   0.265
 5788W        W13190  17.658   8.518   0.633
 5789W        W13191  12.011   3.322   9.724
 5790W        W13192   6.273   6.056   1.236
 5791W        W13193  15.040   9.716   8.516
 5792W        W13194   7.550   7.328   8.463
 5793W        W13195   2.700   1.791   0.772
 5794W        W13196  15.300   4.060   9.502
 5795W        W13197  11.320   6.998   8.410
 5796W        W13198   4.821   1.524   0.611
 5797W        W13199  17.381   3.936   9.210
 5798W        W13200   5.712   4.118   0.136
 5799W        W13201  18.917   9.240   1.805
 5800W        W13202  16.039   5.985   8.342
 5801W        W13203   4.285   1.717   0.648
 5802W        W13204  10.977   1.388   7.519
 5803W        W13205   8.742   2.819   9.279
 5804W        W13206   8.198   0.484   9.744
 5805W        W13207   3.739   3.649   1.729
 5806W        W13208   0.650   5.356   9.798
 5807W        W13209   8.965   2.448   9.594
 5808W        W13210   4.199   9.468   0.020
 5809W        W13211   5.095   2.947   9.428
 5810W        W13212   9.138   1.805   1.391
 5811W        W13213   7.753   0.329   1.754
 5812W        W13214   0.316   7.092   8.955
 5813W        W13215  15.493   0.176   9.689
 5814W        W13216  12.946   8.932   9.652
 5815W        W13217  13.826   2.908   0.172
 5816W        W13218   9.216   7.220   2.165
 5817W        W13219   7.450   5.466   1.988
 5818W        W13220  12.999   1.654   0.836
 5819W        W13221   7.734   0.579   0.040
 5820W        W13222  19.222   4.681   9.176
 5821W        W13223   8.453   7.410   2.332
 5822W        W13224  15.370   8.394   1.151
 5823W        W13225  18.161   4.501   0.020
 5824W        W13226  10.506   3.882   2.253
 5825W        W13227  19.179   5.582   8.070
 5826W        W13228   1.907   6.050   7.987
 5827W        W13229   7.587   1.349   8.115
 5828W        W13230  16.469   6.557   1.931
 5829W        W13231   3.185   1.748   2.107
 5830W        W13232  18.015   5.017   8.120
 5831W        W13233   0.417   9.241   2.185
 5832W        W13234  17.507   0.309   8.425
 5833W        W13235   7.939   7.446   7.630
 5834W        W13236  18.726   3.549   1.878
 5835W        W13237   1.098   5.157   1.863
 5836W        W13238   5.867   2.223   8.014
 5837W        W13239  17.240   8.532   8.441
 5838W        W13240  16.933   7.383   8.193
 5839W        W13241  14.627   9.117   1.474
 5840W        W13242  17.340   1.608   8.016
 5841W        W13243   6.707   2.041   0.537
 5842W        W13244   5.382   3.300   9.215
 5843W        W13245  17.548   8.285   1.630
 5844W        W13246  15.559   4.045   0.693
 5845W        W13247   6.953   2.188   8.812
 5846W        W13248   8.745   6.470   9.677
 5847W        W13249  19.572   7.471   0.822
 5848W        W13250  12.182   9.649   8.435
 5849W        W13251   5.136   1.639   2.319
 5850W        W13252   7.914   4.500   8.353
 5851W        W13253   7.027   3.173   8.837
 5852W        W13254  19.050   3.338   8.429
 5853W        W13255   6.072   2.751   9.693
 5854W        W13256   4.080   1.589   7.965
 5855W        W13257   4.436   8.045   8.597
 5856W        W13258   8.682   8.926   1.261
 5857W        W13259  10.501   0.150   0.407
 5858W        W13260   2.283   7.167   0.255
 5859W        W13261  19.824   7.966   9.002
 5860W        W13262   1.052   9.168   8.890
 5861W        W13263  16.567   8.794   1.878
 5862W        W13264   4.204   0.695   7.548
 5863W        W13265   4.491   9.780   2.043
 5864W        W13266   8.367   1.530   8.048
 5865W        W13267  11.609   2.096   1.743
 5866W        W13268  11.089   1.468   9.647
 5867W        W13269  15.723   6.556   1.346
 5868W        W13270  10.497   1.191   8.365
 5869W        W13271  17.703   9.884   8.973
 5870W        W13272   4.064   3.790   0.978
 5871W        W13273   5.095   7.826  10.000
 5872W        W13274   5.359   2.152   8.025
 5873W        W13275  10.977   0.331   1.107
 5874W        W13276   6.968   1.716   8.590
 5875W        W13277  14.542   4.489   0.317
 5876W        W13278   7.217   4.786   1.159
 5877W        W13279   0.371   7.483   1.672
 5878W        W13280  12.352   5.351   2.743
 5879W        W13281  19.837   1.150   8.193
 5880W        W13282  13.098   0.264   8.029
 5881W        W13283  13.753   4.145   0.234
 5882W        W13284  10.049   5.554   1.049
 5883W        W13285   8.106   3.526   8.099
 5884W        W13286  19.205   3.647   2.078
 5885W        W13287  10.516   0.747   8.626
 5886W        W13288  12.414   1.153   2.564
 5887W        W13289   2.732   6.752   2.130
 5888W        W13290   9.910   7.442   7.899
 5889W        W13291   0.124   9.742   0.313
 5890W        W13292  19.113   0.555   0.721
 5891W        W13293  13.938   2.722   7.471
 5892W        W13294   8.351   6.312   9.389
 5893W        W13295   8.295   4.530   9.828
 5894W        W13296   1.890   7.941   9.969
 5895W        W13297   5.696   0.894   8.093
 5896W        W13298  11.070   3.974   7.735
 5897W        W13299   3.570   4.441   8.018
 5898W        W13300   9.221   9.317   0.916
 5899W        W13301   2.711   8.087   9.374
 5900W        W13302   1.746   4.892   0.735
 5901W        W13303  18.844   0.185   7.712
 5902W        W13304  18.736   7.380   8.768
 5903W        W13305  12.954   4.077   9.617
 5904W        W13306   3.182   4.407   0.850
 5905W        W13307   3.578   2.542   2.400
 5906W        W13308  13.121   4.524   1.287
 5907W        W13309  17.488   9.127   1.777
 5908W        W13310   7.497   1.003   0.689
 5909W        W13311   3.840   2.305   8.876
 5910W        W13312   1.634   5.950   2.503
 5911W        W13313  11.705   9.425   2.452
 5912W        W13314  12.459   9.823   1.645
 5913W        W13315   8.639   6.035   8.660
 5914W        W13316  17.823   1.126   2.131
 5915W        W13317   1.268   3.529   9.280
 5916W        W13318  19.816   4.881   2.065
 5917W        W13319  13.210   7.017   0.794
 5918W        W13320   0.747   7.041   8.656
 5919W        W13321  16.808   6.155   2.631
 5920W        W13322  15.692   7.390   7.871
 5921W        W13323  14.145   1.779   9.662
 5922W        W13324  18.538   2.075   8.703
 5923W        W13325   5.873   9.440   1.950
 5924W        W13326  16.489   8.174   0.127
 5925W        W13327   9.272   9.776   1.294
 5926W        W13328  11.411   8.271   8.871
 5927W        W13329   2.527   3.900   1.121
 5928W        W13330  17.579   8.769   9.759
 5929W        W13331   4.821   0.823   9.729
 5930W        W13332   2.766   9.177   1.733
 5931W        W13333  11.560   5.164   0.824
 5932W        W13334  16.296   3.212   9.442
 5933W        W13335   8.935   2.031   0.960
 5934W        W13336  18.643   8.789   1.909
 5935W        W13337   3.582   8.006   8.889
 5936W        W13338  13.868   8.900   8.912
 5937W        W13339   2.610   5.898   8.337
 5938W        W13340  14.848   5.372   0.713
 5939W        W13341   8.991   7.455   0.702
 5940W        W13342   3.258   0.875   7.896
 5941W        W13343   0.733   3.721   2.345
 5942W        W13344  19.662   7.228   8.258
 5943W        W13345   3.933   7.789   1.583
 5944W        W13346  16.702   4.053   1.557
 5945W        W13347  12.287   6.326   7.768
 5946W        W13348  13.007   1.291   0.118
 5947W        W13349   4.151   5.699   2.129
 5948W        W13350  19.978   5.444   7.739
 5949W        W13351  15.080   9.383   0.177
 5950W        W13352   0.238   8.718   1.822
 5951W        W13353   0.260   8.759   9.020
 5952W        W13354   5.216   0.254   9.588
 5953W        W13355   3.690   9.474   9.916
 5954W        W13356  15.918   3.656   8.852
 5955W        W13357  19.733   3.005   9.721
 5956W        W13358   7.295   2.431   9.109
 5957W        W13359  12.136   6.854   9.861
 5958W        W13360   6.093   0.649   2.412
 5959W        W13361  13.730   8.474   9.668
 5960W        W13362   7.363   6.083   0.723
 5961W        W13363  10.377   3.607   8.739
 5962W        W13364   0.857   8.920   0.654
 5963W        W13365  14.315   3.100   0.033
 5964W        W13366   6.417   7.144   1.792
 5965W        W13367  14.401   1.339   1.200
 5966W        W13368   2.058   2.206   8.100
 5967W        W13369  18.346   7.194   8.487
 5968W        W13370   6.000   6.014   7.924
 5969W        W13371   3.076   4.844   0.632
 5970W        W13372  14.832   9.877   0.153
 5971W        W13373  10.911   7.791   2.335
 5972W        W13374   5.222   1.028   0.122
 5973W        W13375   6.699   4.862   8.455
 5974W        W13376  13.004   5.235   8.419
 5975W        W13377   2.113   3.596   9.897
 5976W        W13378   8.190   9.878   2.302
 5977W        W13379   3.777   8.262   0.238
 5978W        W13380   3.765   6.647   9.070
 5979W        W13381   5.112   0.373   1.568
 5980W        W13382   2.585   6.702   9.791
 5981W        W13383  12.068   6.815   7.874
 5982W        W13384  14.623   3.894   1.664
 5983W        W13385  10.117   0.287   1.617
 5984W        W13386   5.483   0.435   8.021
 5985W        W13387  15.921   2.565   8.399
 5986W        W13388   8.443   0.916   1.835
 5987W        W13389   8.840   5.376   2.072
 5988W        W13390  10.874   5.728   8.454
 5989W        W13391  17.236   0.349   1.251
 5990W        W13392  17.555   1.315   9.715
 5991W        W13393  17.879   3.221   0.748
 5992W        W13394  10.652   8.917   1.174
 5993W        W13395  11.135   3.400   1.689
 5994W        W13396   7.976   8.389   7.630
 5995W        W13397  15.459   7.571   9.959
 5996W        W13398   6.113   9.676   2.339
 5997W        W13399  14.893   6.000   1.068
 5998W        W13400  11.656   3.348   1.472
 5999W        W13401   0.483   8.606   9.876
 6000W        W13402   6.087   9.156   2.372
 6001W        W13403  17.564   6.454   9.546
 6002W        W13404   3.728   0.815   1.481
 6003W        W13405  17.585   4.961   8.414
 6004W        W13406   5.277   2.722   7.528
 6005W        W13407  18.063   8.438   0.985
 6006W        W13408  11.080   3.816   0.212
 6007W        W13409   5.731   0.748   0.655
 6008W        W13410   8.186   9.238   8.781
 6009W        W13411   0.260   8.788   7.941
 6010W        W13412  16.530   9.530   0.302
 6011W        W13413  12.978   7.477   1.343
 6012W        W13414   1.100   0.141   8.963
 6013W        W13415  19.730   6.816   2.075
 6014W        W13416  10.111   7.588   8.385
 6015W        W13417  16.785   1.713   9.168
 6016W        W13418   5.114   9.866   8.748
 6017W        W13419   8.955   5.590   9.484
 6018W        W13420   1.153   0.816   8.221
 6019W        W13421  10.395   9.496   0.995
 6020W        W13422  19.363   0.204   8.573
 6021W        W13423   0.996   9.666   0.006
 6022W        W13424   3.229   3.258   7.849
 6023W        W13425   0.587   0.760   7.967
 6024W        W13426   2.389   7.675   9.382
 6025W        W13427  13.955   9.334   8.639
 6026W        W13428  15.482   1.148   9.970
 6027W        W13429  13.076   7.806   8.620
 6028W        W13430  15.660   0.659   9.795
 6029W        W13431  13.243   9.603   0.186
 6030W        W13432  17.041   1.276   9.870
 6031W        W13433  12.064   5.396   8.296
 6032W        W13434  16.495   5.156   1.990
 6033W        W13435  19.164   0.014   9.009
 6034W        W13436   2.380   3.751   0.637
 6035W        W13437   8.095   4.365   1.120
 6036W        W13438  16.559   6.751   0.362
 6037W        W13439  10.140   5.009   8.544
 6038W        W13440  15.263   2.568   1.562
 6039W        W13441  12.487   9.920   0.559
 6040W        W13442   0.819   6.883   7.650
 6041W        W13443   7.959   2.412   1.012
 6042W        W13444  12.557   3.561   1.027
 6043W        W13445  12.043   2.651   1.944
 6044W        W13446   5.933   3.913   8.137
 6045W        W13447  14.578   3.644   1.187
 6046W        W13448  11.547   0.713   0.573
 6047W        W13449   7.966   4.858   0.313
 6048W        W13450  14.462   7.945   8.242
 6049W        W13451   8.917   8.332   9.166
 6050W        W13452  14.073   5.004   0.907
 6051W        W13453  12.948   2.256   9.702
 6052W        W13454   6.167   8.461   0.145
 6053W        W13455   6.341   6.793   7.478
 6054W        W13456  15.027   7.623   2.210
 6055W        W13457  17.664   5.866   0.611
 6056W        W13458   7.768   3.946   7.513
 6057W        W13459  17.052   2.013   7.786
 6058W        W13460  14.297   3.218   2.209
 6059W        W13461   8.479   1.816   0.740
 6060W        W13462   6.340   1.654   8.297
 6061W        W13463   7.387   4.119   8.946
 6062W        W13464  16.601   9.023   9.126
 6063W        W13465  15.240   6.647   7.687
 6064W        W13466   2.364   7.995   8.939
 6065W        W13467   0.489   2.994   0.210
 6066W        W13468   1.830   9.035   0.695
 6067W        W13469   7.784   6.159   1.702
 6068W        W13470   5.977   7.562   0.399
 6069W        W13471   8.440   2.256   1.516
 6070W        W13472   3.875   5.712   7.705
 6071W        W13473   5.533   7.202   9.333
 6072W        W13474   5.063   5.501   0.235
 6073W        W13475  15.923   9.601   9.169
 6074W        W13476   0.211   3.754   2.171
 6075W        W13477  19.366   2.245   0.474
 6076W        W13478   0.879   4.890   8.514
 6077W        W13479   6.035   7.353   2.172
 6078W        W13480  11.981   0.750   0.305
 6079W        W13481  19.546   5.231   7.900
 6080W        W13482   1.908   1.469   2.092
 6081W        W13483   6.760   1.890   9.536
 6082W        W13484  12.521   8.196   0.261
 6083W        W13485   9.460   1.020   9.153
 6084W        W13486  11.295   6.045   9.347
 6085W        W13487   8.897   7.436   9.163
 6086W        W13488  16.299   6.268   8.715
 6087W        W13489   7.209   2.619   2.050
 6088W        W13490   1.545   5.433   2.535
 6089W        W13491   1.467   2.560   9.987
 6090W        W13492  13.402   4.925   8.608
 6091W        W13493  17.179   2.674   0.855
 6092W        W13494   8.012   8.841   7.919
 6093W        W13495   3.900   0.859   9.836
 6094W        W13496  14.648   9.622   1.425
 6095W        W13497  16.969   7.398   2.188
 6096W        W13498   8.859   5.664   8.978
 6097W        W13499  11.874   7.694   0.670
 6098W        W13500   0.599   3.509   0.906
 6099W        W13501  10.946   0.525   8.500
 6100W        W13502   5.316   4.740   8.049
 6101W        W13503   2.275   4.010   8.723
 6102W        W13504  19.158   2.346   1.498
 6103W        W13505  13.887   0.653   8.902
 6104W        W13506  17.588   8.950   8.478
 6105W        W13507  12.635   3.739   9.405
 6106W        W13508   9.568   6.188   7.685
 6107W        W13509   5.598   2.324   7.575
 6108W        W13510   0.061   3.597   8.367
 6109W        W13511  17.334   4.363   8.579
 6110W        W13512   0.439   7.442   8.572
 6111W        W13513   5.706   4.303   8.390
 6112W        W13514  19.232   3.723   2.566
 6113W        W13515  11.008   2.131   1.304
 6114W        W13516   7.268   9.836   9.367
 6115W        W13517   1.541   3.574   7.693
 6116W        W13518   8.795   0.930   7.588
 6117W        W13519   0.844   1.519   0.432
 6118W        W13520  11.730   4.458   1.778
 6119W        W13521   7.214   1.310   0.400
 6120W        W13522  16.333   3.893   2.428
 6121W        W13523   6.566   5.150   0.347
 6122W        W13524   1.606   7.247   9.594
 6123W        W13525  17.455   2.376   7.987
 6124W        W13526  17.602   0.188   0.293
 6125W        W13527  14.757   7.564   0.248
 6126W        W13528  10.863   9.413   1.190
 6127W        W13529  17.757   4.704   1.874
 6128W        W13530   2.838   2.161   9.834
 6129W        W13531  17.306   0.667   7.359
 6130W        W13532  11.261   0.148   8.350
 6131W        W13533   4.324   8.001   1.299
 6132W        W13534   7.060   2.725   0.017
 6133W        W13535   9.276   3.468   7.976
 6134W        W13536   6.530   3.770   0.312
 6135W        W13537  15.907   5.404   8.919
 6136W        W13538  16.527   1.160   7.881
 6137W        W13539  13.471   1.997   8.143
 6138W        W13540  17.799   7.842   2.335
 6139W        W13541  16.398   9.454   1.153
 6140W        W13542   6.372   9.410   1.978
 6141W        W13543  12.840   3.041   0.256
 6142W        W13544   1.801   5.745   9.404
 6143W        W13545   6.146   5.051   0.927
 6144W        W13546  18.432   0.541   1.532
 6145W        W13547  19.179   9.666   1.974
 6146W        W13548  18.142   5.665   7.567
 6147W        W13549  14.583   9.472   8.422
 6148W        W13550  11.229   7.820   8.062
 6149W        W13551   3.576   1.680   7.632
 6150W        W13552  15.317   5.280   0.515
 6151W        W13553   0.232   4.595   7.723
 6152W        W13554  16.987   3.161   1.987
 6153W        W13555  12.963   4.995   9.847
 6154W        W13556   8.900   4.869   0.857
 6155W        W13557  16.183   1.750   9.698
 6156W        W13558   5.554   6.800   0.782
 6157W        W13559   6.026   6.493   1.290
 6158W        W13560  13.579   2.174   1.729
 6159W        W13561  18.785   5.303   9.880
 6160W        W13562   9.467   7.519   1.819
 6161W        W13563  10.558   9.986   2.455
 6162W        W13564  19.648   5.541   8.290
 6163W        W13565  17.358   9.753   7.672
 6164W        W13566  19.810   7.970   0.981
 6165W        W13567  18.021   8.343   9.749
 6166W        W13568   7.385   2.234   7.898
 6167W        W13569   4.322   8.246   1.999
 6168W        W13570  12.121   2.171   1.766
 6169W        W13571   5.286   3.359   2.317
 6170W        W13572   7.140   8.409   7.689
 6171W        W13573  13.741   6.317   9.382
 6172W        W13574  18.555   4.024   0.549
 6173W        W13575   4.784   3.328   8.061
 6174W        W13576   5.950   9.687   7.669
 6175W        W13577  15.506   4.817   7.574
 6176W        W13578   6.569   0.824   2.357
 6177W        W13579   5.691   3.458   0.892
 6178W        W13580   0.626   8.383   8.473
 6179W        W13581  12.931   6.897   8.328
 6180W        W13582   2.502   4.705   7.798
 6181W        W13583  17.392   8.462   0.182
 6182W        W13584   8.374   5.852   9.046
 6183W        W13585  13.750   4.026   8.351
 6184W        W13586  15.914   5.822   1.020
 6185W        W13587  10.157   1.684   1.607
 6186W        W13588  14.260   4.159   0.020
 6187W        W13589  10.113   2.784   8.803
 6188W        W13590   2.205   4.428   1.275
 6189W        W13591  19.628   0.438   1.180
 6190W        W13592   8.783   6.734   1.110
 6191W        W13593   4.999   7.808   8.532
 6192W        W13594  16.398   6.030   2.337
 6193W        W13595  10.793   5.516   0.582
 6194W        W13596   2.512   5.962   8.826
 6195W        W13597   8.221   2.609   7.882
 6196W        W13598  14.386   7.324   0.924
 6197W        W13599   8.456   7.745   9.188
 6198W        W13600  13.970   2.438   0.220
 6199W        W13601  10.229   9.293   1.941
 6200W        W13602  17.733   9.845   8.456
 6201W        W13603   5.222   7.012   2.049
 6202W        W13604  11.497   9.792   2.138
 6203W        W13605  19.128   5.348   7.621
 6204W        W13606   3.084   8.680   9.073
 6205W        W13607  12.902   0.468   1.602
 6206W        W13608   8.400   6.839   9.709
 6207W        W13609  12.716   7.867   8.976
 6208W        W13610  16.362   2.492   9.693
 6209W        W13611  19.486   9.223   9.300
 6210W        W13612  19.979   6.767   2.526
 6211W        W13613  13.727   4.517   0.601
 6212W        W13614   1.385   6.836   8.480
 6213W        W13615   8.361   7.680   1.472
 6214W        W13616  19.375   8.451   1.570
 6215W        W13617   8.555   9.590   8.272
 6216W        W13618   4.282   5.085   9.891
 6217W        W13619   9.967   5.979   9.702
 6218W        W13620   0.705   1.120   7.610
 6219W        W13621   6.722   7.835   9.243
 6220W        W13622  10.396   8.729   0.751
 6221W        W13623   5.563   2.552   2.098
 6222W        W13624  18.862   2.685   9.433
 6223W        W13625  10.684   2.252   7.784
 6224W        W13626   5.355   5.441   0.647
 6225W        W13627   5.144   7.765   1.790
 6226W        W13628   3.950   0.734   0.895
 6227W        W13629   1.908   8.294   1.341
 6228W        W13630   9.490   0.726   9.778
 6229W        W13631  17.809   0.325   9.241
 6230W        W13632   0.812   3.899   9.862
 6231W        W13633  19.229   6.889   8.183
 6232W        W13634   7.213   9.406   9.684
 6233W        W13635  12.386   5.559   0.584
 6234W        W13636   7.579   2.067   1.013
 6235W        W13637   1.168   6.555   9.757
 6236W        W13638   7.944   5.258   0.662
 6237W        W13639   3.492   6.341   9.397
 6238W        W13640  15.307   1.098   0.858
 6239W        W13641  18.827   9.909   9.983
 6240W        W13642   5.294   7.340   7.960
 6241W        W13643  11.105   8.677   8.713
 6242W        W13644  12.497   5.034   0.081
 6243W        W13645  12.773   6.405   8.352
 6244W        W13646   7.565   7.780   8.188
 6245W        W13647  16.189   8.208   9.628
 6246W        W13648  17.173   3.572   2.260
 6247W        W13649   4.316   0.798   9.557
 6248W        W13650  16.517   7.562   8.449
 6249W        W13651   1.885   0.472   9.093
 6250W        W13652  14.083   3.762   1.114
 6251W        W13653  16.836   1.564   8.685
 6252W        W13654   3.849   8.480   1.615
 6253W        W13655  11.278   9.246   7.522
 6254W        W13656   5.485   2.799   0.329
 6255W        W13657   4.230   3.999   0.499
 6256W        W13658  14.650   2.646   7.817
 6257W        W13659   4.029   3.078   8.378
 6258W        W13660   0.139   2.647   0.378
 6259W        W13661  19.597   6.079   1.587
 6260W        W13662   8.660   3.856   9.239
 6261W        W13663   7.683   4.969   1.970
 6262W        W13664  11.131   7.488   8.451
 6263W        W13665   3.599   5.340   8.526
 6264W        W13666  15.340   3.559   0.649
 6265W        W13667  10.894   1.720   0.033
 6266W        W13668  15.892   7.548   2.280
 6267W        W13669   5.056   2.994   8.427
 6268W        W13670  12.878   6.418   9.707
 6269W        W13671  19.587   3.915   1.824
 6270W        W13672   0.924   9.357   0.400
 6271W        W13673   6.425   4.848   8.019
 6272W        W13674   1.898   8.769   9.735
 6273W        W13675   0.663   2.041   9.190
 6274W        W13676  19.778   2.533   9.117
 6275W        W13677   9.084   7.930   9.919
 6276W        W13678   8.320   1.713   2.484
 6277W        W13679   3.416   2.528   0.228
 6278W        W13680  18.698   5.793   9.784
 6279W        W13681  10.027   6.514   0.176
 6280W        W13682  13.141   7.135   2.434
 6281W        W13683   9.881   5.259   2.011
 6282W        W13684   6.485   3.483   8.262
 6283W        W13685   1.743   8.280   9.579
 6284W        W13686   5.060   5.576   9.707
 6285W        W13687   4.462   9.519   8.566
 6286W        W13688   5.045   5.485   9.200
 6287W        W13689   2.686   5.001   8.347
 6288W        W13690  15.354   1.379   9.523
 6289W        W13691   5.407   3.682   0.530
 6290W        W13692   8.505   3.650   2.317
 6291W        W13693   0.176   6.644   1.203
 6292W        W13694  13.118   2.172   8.702
 6293W        W13695   9.054   3.968   1.689
 6294W        W13696   9.453   0.080   9.482
 6295W        W13697   5.415   7.495   8.474
 6296W        W13698   1.589   5.968   1.470
 6297W        W13699  13.788   7.120   7.774
 6298W        W13700  11.189   8.954   1.781
 6299W        W13701   0.190   8.305   0.200
 6300W        W13702  18.319   5.455   9.149
 6301W        W13703  10.624   0.885   9.156
 6302W        W13704   8.059   4.785   0.823
 6303W        W13705   8.955   8.770   8.407
 6304W        W13706   9.708   2.460   9.529
 6305W        W13707  16.116   1.174   8.605
 6306W        W13708  18.057   1.377   1.446
 6307W        W13709   7.164   1.770   0.190
 6308W        W13710  15.491   2.521   8.091
 6309W        W13711  14.761   0.812   8.472
 6310W        W13712   7.786   9.632   0.132
 6311W        W13713   4.030   6.616   1.960
 6312W        W13714   0.334   7.870   8.856
 6313W        W13715   9.591   4.131   0.555
 6314W        W13716  10.757   2.012   0.438
 6315W        W13717   7.435   0.701   8.808
 6316W        W13718   4.880   0.802   8.784
 6317W        W13719   4.997   1.890   0.252
 6318W        W13720  12.669   1.782   9.747
 6319W        W13721   4.781   6.789   9.434
 6320W        W13722   8.877   7.892   9.438
 6321W        W13723   3.930   3.876   2.273
 6322W        W13724   7.700   5.415   9.658
 6323W        W13725  10.660   0.767   1.108
 6324W        W13726  16.618   5.402   1.548
 6325W        W13727   7.664   8.251   1.128
 6326W        W13728   1.565   2.158   0.340
 6327W        W13729   2.285   8.228   0.233
 6328W        W13730  17.475   7.466   1.976
 6329W        W13731   0.871   5.157   8.074
 6330W        W13732   0.101   0.732   8.145
 6331W        W13733  12.313   2.264   8.900
 6332W        W13734   0.638   8.329   7.449
 6333W        W13735   8.716   9.367   0.899
 6334W        W13736   4.924   8.012   9.018
 6335W        W13737  19.747   9.079   2.467
 6336W        W13738   7.473   8.996   1.662
 6337W        W13739  11.389   8.420   0.337
 6338W        W13740   3.801   5.539   0.608
 6339W        W13741   1.477   1.374   1.777
 6340W        W13742   3.855   5.978   1.809
 6341W        W13743  11.399   9.818   2.680
 6342W        W13744   5.826   8.872   9.640
 6343W        W13745  13.647   9.219   8.231
 6344W        W13746   1.378   7.337   8.293
 6345W        W13747  18.956   9.855   8.571
 6346W        W13748  15.656   6.685   1.842
 6347W        W13749   4.021   1.796   1.487
 6348W        W13750  10.912   5.628   1.065
 6349W        W13751   7.101   6.679   1.773
 6350W        W13752   7.933   3.073   9.812
 6351W        W13753   1.978   3.940   1.197
 6352W        W13754  19.174   5.457   1.006
 6353W        W13755  16.364   2.637   8.739
 6354W        W13756  19.538   2.006   1.728
 6355W        W13757   5.880   1.626   1.586
 6356W        W13758  10.037   4.383   0.551
 6357W        W13759   1.637   3.541   1.221
 6358W        W13760  11.658   4.643   7.658
 6359W        W13761   9.540   4.073   1.560
 6360W        W13762   8.504   5.406   9.296
 6361W        W13763  10.091   6.167   2.079
 6362W        W13764  14.004   7.997   9.525
 6363W        W13765   4.532   5.769   2.874
 6364W        W13766   2.129   5.999   2.334
 6365W        W13767  18.496   5.085   7.828
 6366W        W13768  12.014   8.819   8.130
 6367W        W13769   7.166   0.199   8.757
 6368W        W13770  19.804   1.156   9.238
 6369W        W13771   5.348   8.896   0.443
 6370W        W13772   9.529   6.566   0.246
 6371W        W13773  11.978   2.504   0.506
 6372W        W13774   2.024   7.483   1.306
 6373W        W13775   8.524   4.366   9.179
 6374W        W13776   2.562   6.809   7.845
 6375W        W13777  19.139   4.169   1.848
 6376W        W13778   7.574   2.247   7.437
 6377W        W13779  11.614   9.356   1.925
 6378W        W13780  14.040   5.599   8.361
 6379W        W13781   9.880   9.356   0.266
 6380W        W13782   1.071   2.377   0.331
 6381W        W13783  13.537   0.019   7.435
 6382W        W13784   3.895   1.690   9.316
 6383W        W13785   1.552   4.117   2.404
 6384W        W13786   2.308   8.288   8.518
 6385W        W13787   5.606   2.149   8.490
 6386W        W13788   6.359   5.514   9.642
 6387W        W13789   0.800   9.466   7.961
 6388W        W13790   4.936   3.701   9.036
 6389W        W13791  10.196   2.545   2.232
 6390W        W13792  10.567   4.334   9.626
 6391W        W13793  14.621   1.233   8.939
 6392W        W13794  11.581   6.046   8.905
 6393W        W13795  17.216   9.431   2.112
 6394W        W13796  13.302   6.523   0.893
 6395W        W13797  17.537   1.948   7.674
 6396W        W13798   5.964   8.814   8.643
 6397W        W13799   8.073   7.478   0.234
 6398W        W13800  19.147   4.521   2.243
 6399W        W13801   0.143   5.639   9.045
 6400W        W13802  15.331   2.527   0.522
 6401W        W13803   0.291   9.625   8.938
 6402W        W13804  16.325   5.311   0.120
 6403W        W13805   9.011   0.336   8.217
 6404W        W13806   2.270   7.490   2.313
 6405W        W13807   9.833   7.969   9.277
 6406W        W13808  14.823   4.505   0.876
 6407W        W13809   8.522   8.745   9.660
 6408W        W13810   1.868   5.007   9.825
 6409W        W13811  17.394   5.418   0.535
 6410W        W13812   7.014   8.986   0.964
 6411W        W13813  14.282   9.903   1.177
 6412W        W13814   6.240   9.653   8.110
 6413W        W13815  18.270   4.526   0.525
 6414W        W13816   2.281   0.409   9.425
 6415W        W13817  19.086   7.543   9.914
 6416W        W13818  10.098   5.231   0.659
 6417W        W13819   1.415   4.416   9.265
 6418W        W13820  11.441   0.293   1.358
 6419W        W13821   7.975   7.471   8.165
 6420W        W13822  14.744   8.629   1.493
 6421W        W13823   6.644   0.293   8.699
 6422W        W13824  16.771   9.985   0.061
 6423W        W13825   2.364   1.444   9.009
 6424W        W13826   8.444   8.343   9.970
 6425W        W13827   5.704   8.576   1.424
 6426W        W13828  14.957   5.872   8.550
 6427W        W13829  10.823   5.204   1.368
 6428W        W13830   8.014   4.316   0.620
 6429W        W13831  18.482   9.356   8.086
 6430W        W13832   4.344   2.024   8.044
 6431W        W13833  11.878   2.938   0.724
 6432W        W13834   7.728   1.012   9.720
 6433W        W13835   9.766   2.366   2.003
 6434W        W13836   6.679   7.357   8.469
 6435W        W13837   8.040   8.373   8.687
 6436W        W13838   0.427   4.030   0.927
 6437W        W13839   9.044   0.419   9.662
 6438W        W13840  19.775   8.483   9.018
 6439W        W13841  10.746   2.561   0.961
 6440W        W13842  16.660   3.551   2.146
 6441W        W13843   7.685   4.528   9.697
 6442W        W13844   2.360   9.519   2.413
 6443W        W13845   5.345   1.721   8.342
 6444W        W13846   9.924   0.254   8.680
 6445W        W13847   0.724   0.978   1.610
 6446W        W13848  19.718   9.275   9.738
 6447W        W13849  19.915   5.780   1.196
 6448W        W13850   3.167   3.017   9.354
 6449W        W13851  13.599   5.182   0.894
 6450W        W13852   5.972   5.549   9.259
 6451W        W13853  11.167   4.111   8.828
 6452W        W13854   6.243   1.859   2.340
 6453W        W13855  10.479   1.572   0.288
 6454W        W13856  16.013   9.127   1.199
 6455W        W13857  18.596   8.982   9.605
 6456W        W13858   5.421   9.163   9.352
 6457W        W13859  17.965   7.339   1.733
 6458W        W13860   9.358   8.852   0.758
 6459W        W13861   3.673   8.658   9.904
 6460W        W13862   3.993   0.419   8.364
 6461W        W13863  12.199   1.754   8.874
 6462W        W13864   5.302   5.079   2.033
 6463W        W13865   9.560   7.889   2.183
 6464W        W13866   7.100   5.846   0.324
 6465W        W13867  12.296   3.874   2.214
 6466W        W13868  15.555   7.504   9.455
 6467W        W13869  16.101   1.172   1.373
 6468W        W13870  16.422   8.258   1.275
 6469W        W13871  13.077   2.345   8.229
 6470W        W13872   0.505   7.903   9.326
 6471W        W13873  12.134   1.706   9.760
 6472W        W13874   5.376   4.272   8.817
 6473W        W13875  17.768   6.153   2.235
 6474W        W13876   8.124   0.342   0.250
 6475W        W13877  11.150   8.898   0.313
 6476W        W13878  17.076   7.234   9.642
 6477W        W13879   1.668   0.856   0.639
 6478W        W13880  12.932   9.568   1.676
 6479W        W13881   1.154   6.759   2.067
 6480W        W13882  16.336   3.473   0.780
 6481W        W13883  19.921   4.906   1.097
 6482W        W13884   5.001   8.989   9.024
 6483W        W13885   0.209   7.518   7.544
 6484W        W13886   4.777   3.839   8.249
 6485W        W13887  11.553   0.741   1.102
 6486W        W13888   6.173   1.249   9.036
 6487W        W13889  14.854   2.434   0.359
 6488W        W13890  10.530   5.947   8.825
 6489W        W13891   2.520   7.186   9.626
 6490W        W13892   4.588   8.434   8.922
 6491W        W13893  12.591   5.325   1.018
 6492W        W13894   4.617   9.132   0.669
 6493W        W13895  19.295   7.299   0.404
 6494W        W13896  15.529   2.864   7.664
 6495W        W13897  16.832   5.228   8.501
 6496W        W13898   1.991   6.457   2.096
 6497W        W13899   2.420   8.414   1.193
 6498W        W13900   5.736   2.511   9.992
 6499W        W13901  14.666   5.387   1.644
 6500W        W13902  11.567   2.165   8.440
 6501W        W13903  17.695   3.924   8.185
 6502W        W13904   5.130   0.691   9.326
 6503W        W13905   0.533   9.624   9.426
 6504W        W13906   7.922   1.739   8.177
 6505W        W13907  11.743   9.626   8.757
 6506W        W13908   1.108   7.974   1.622
 6507W        W13909  17.542   1.246   7.678
 6508W        W13910  17.884   5.213   9.355
 6509W        W13911   5.855   7.974   9.046
 6510W        W13912  10.365   1.166   0.572
 6511W        W13913   3.952   6.530   1.166
 6512W        W13914  10.566   6.885   8.867
 6513W        W13915  19.943   3.073   9.232
 6514W        W13916   9.776   9.708   8.023
 6515W        W13917   1.477   3.240   2.373
 6516W        W13918   4.142   3.483   1.996
 6517W        W13919   3.140   1.440   7.865
 6518W        W13920   9.206   4.171   0.197
 6519W        W13921  16.423   4.853   8.406
 6520W        W13922  12.095   3.042   8.236
 6521W        W13923  16.351   8.976   8.120
 6522W        W13924  11.167   4.562   2.277
 6523W        W13925   0.433   4.615   9.550
 6524W        W13926  16.203   3.226   7.639
 6525W        W13927  13.999   5.298   7.931
 6526W        W13928  14.061   9.385   0.483
 6527W        W13929   2.687   7.547   1.674
 6528W        W13930  15.065   1.198   2.327
 6529W        W13931   3.222   8.154   0.182
 6530W        W13932   2.797   6.875   9.205
 6531W        W13933  19.797   3.861   9.615
 6532W        W13934  15.592   9.352   0.012
 6533W        W13935  17.915   9.321   8.281
 6534W        W13936  13.549   1.978   7.615
 6535W        W13937  18.053   8.438   8.060
 6536W        W13938  19.354   3.273   8.006
 6537W        W13939  15.188   7.995   0.180
 6538W        W13940  19.312   3.651   1.129
 6539W        W13941  18.260   0.562   8.353
 6540W        W13942   1.471   3.053   9.334
 6541W        W13943  17.367   0.901   2.026
 6542W        W13944   0.667   8.841   8.722
 6543W        W13945   8.081   1.979   1.247
 6544W        W13946   6.492   6.423   8.735
 6545W        W13947   1.341   2.788   7.633
 6546W        W13948   2.895   4.518   8.537
 6547W        W13949  18.928   0.248   8.240
 6548W        W13950  19.468   2.899   9.300
 6549W        W13951  18.477   2.178   9.833
 6550W        W13952   5.156   5.298   7.704
 6551W        W13953   3.355   7.279   9.357
 6552W        W13954  13.214   7.311   8.449
 6553W        W13955   7.947   6.566   8.190
 6554W        W13956   8.930   7.512   0.178
 6555W        W13957  13.450   1.316   9.845
 6556W        W13958   8.752   7.869   7.852
 6557W        W13959  14.467   5.475   8.105
 6558W        W13960  15.496   6.790   2.344
 6559W        W13961  14.766   6.316   8.332
 6560W        W13962   9.728   6.485   8.846
 6561W        W13963  15.989   6.540   7.742
 6562W        W13964  15.221   3.317   7.721
 6563W        W13965   7.029   1.430   7.722
 6564W        W13966  14.886   9.251   8.805
 6565W        W13967  17.646   9.626   1.824
 6566W        W13968  14.451   0.239   7.900
 6567W        W13969  11.195   5.030   8.673
 6568W        W13970  19.803   0.148   0.355
 6569W        W13971  11.420   7.303   1.574
 6570W        W13972  19.050   1.360   9.694
 6571W        W13973  14.981   2.833   0.723
 6572W        W13974  11.906   9.958   2.444
 6573W        W13975   0.543   5.661   8.698
 6574W        W13976  11.915   2.603   8.975
 6575W        W13977   9.618   5.329   0.789
 6576W        W13978   4.995   2.776   0.671
 6577W        W13979   1.007   3.267   2.090
 6578W        W13980  14.360   6.405   9.645
 6579W        W13981  15.304   1.645   7.699
 6580W        W13982  12.216   8.115   0.726
 6581W        W13983   0.244   2.713   9.400
 6582W        W13984   5.183   4.143   0.874
 6583W        W13985  12.812   4.599   0.184
 6584W        W13986   0.331   1.127   8.396
 6585W        W13987  19.551   5.983   8.523
 6586W        W13988   5.480   2.679   1.587
 6587W        W13989  14.443   4.533   8.311
 6588W        W13990   0.237   8.756   8.454
 6589W        W13991   1.126   1.137   1.280
 6590W        W13992   8.682   2.255   7.556
 6591W        W13993   6.787   4.019   7.651
 6592W        W13994  11.810   1.185   0.028
 6593W        W13995   5.865   5.326   9.755
 6594W        W13996   2.186   4.177   7.674
 6595W        W13997  18.652   4.403   0.881
 6596W        W13998   8.575   0.071   0.256
 6597W        W13999  10.996   8.815   8.236
 6598W        W14000  11.291   9.301   8.479
 6599W        W14001  17.884   9.740   0.462
 6600W        W14002   7.285   9.762   0.338
 6601W        W14003  14.429   5.723   0.259
 6602W        W14004   3.874   2.355   7.984
 6603W        W14005  10.058   8.517   1.083
 6604W        W14006  18.800   3.510   2.411
 6605W        W14007  16.822   8.913   7.807
 6606W        W14008  18.691   0.139   1.294
 6607W        W14009  17.901   6.842   8.009
 6608W        W14010   6.052   3.630   1.664
 6609W        W14011  19.681   2.376   8.102
 6610W        W14012   7.149   7.526   9.238
 6611W        W14013   1.941   2.397   2.210
 6612W        W14014  10.167   8.483   8.495
 6613W        W14015  11.385   0.299   0.302
 6614W        W14016   1.974   3.520   7.997
 6615W        W14017  15.816   8.645   1.239
 6616W        W14018   8.667   6.131   7.529
 6617W        W14019  17.449   2.963   1.266
 6618W        W14020  15.011   9.240   8.301
 6619W        W14021  11.950   0.617   8.364
 6620W        W14022   5.780   3.920   9.675
 6621W        W14023  16.867   3.470   0.803
 6622W        W14024   1.411   0.463   1.893
 6623W        W14025  15.074   8.247   1.555
 6624W        W14026   2.874   1.595   9.133
 6625W        W14027   0.661   8.791   2.117
 6626W        W14028  15.713   9.896   7.937
 6627W        W14029   4.550   9.320   9.029
 6628W        W14030   4.923   7.303   8.387
 6629W        W14031  15.235   4.777   8.937
 6630W        W14032   2.831   9.100   8.313
 6631W        W14033   7.588   4.941   9.403
 6632W        W14034   7.551   2.217   9.502
 6633W        W14035  16.782   5.055   7.625
 6634W        W14036   2.869   2.335   2.265
 6635W        W14037   2.933   1.625   0.330
 6636W        W14038   7.914   0.687   0.552
 6637W        W14039  13.953   6.617   8.491
 6638W        W14040   3.586   4.036   8.444
 6639W        W14041   8.794   1.969   9.774
 6640W        W14042  17.459   5.458   9.189
 6641W        W14043  12.523   2.477   1.945
 6642W        W14044  14.767   9.485   1.893
 6643W        W14045  16.803   9.480   9.869
 6644W        W14046   9.084   8.697   7.801
 6645W        W14047  11.941   9.791   7.968
 6646W        W14048   4.560   6.983   9.856
 6647W        W14049   8.129   6.569   0.632
 6648W        W14050   4.808   0.629   0.745
 6649W        W14051   4.397   4.858   7.827
 6650W        W14052   8.936   8.878   1.701
 6651W        W14053  17.519   9.921   0.755
 6652W        W14054  10.908   7.523   7.762
 6653W        W14055   3.600   2.899   8.044
 6654W        W14056  14.750   7.548   8.406
 6655W        W14057   8.880   6.224   0.633
 6656W        W14058  11.363   2.629   8.277
 6657W        W14059   0.069   7.731   0.177
 6658W        W14060   0.832   7.952   8.681
 6659W        W14061  18.591   5.965   2.492
 6660W        W14062  19.783   6.473   9.307
 6661W        W14063  12.022   4.797   7.319
 6662W        W14064   7.143   7.948   7.964
 6663W        W14065  11.617   4.720   8.718
 6664W        W14066   3.019   9.876   0.275
 6665W        W14067   7.524   8.105   1.627
 6666W        W14068  13.235   2.703   8.940
 6667W        W14069  15.672   2.734   2.064
 6668W        W14070  12.620   5.995   0.752
 6669W        W14071   5.586   9.939   8.923
 6670W        W14072  17.547   5.207   1.788
 6671W        W14073   9.924   2.104   9.064
 6672W        W14074  10.830   1.142   8.756
 6673W        W14075  18.721   9.801   8.087
 6674W        W14076  19.050   6.790   1.294
 6675W        W14077   8.445   8.215   8.398
 6676W        W14078  19.417   5.879   1.134
 6677W        W14079  16.977   5.590   9.344
 6678W        W14080  18.885   7.711   7.806
 6679W        W14081  15.032   8.482   0.326
 6680W        W14082  12.592   6.460   0.162
 6681W        W14083   9.177   5.589   9.936
 6682W        W14084  10.462   0.349   0.875
 6683W        W14085   2.001   9.933   0.221
 6684W        W14086   7.126   5.104   9.152
 6685W        W14087  10.706   3.126   7.815
 6686W        W14088  17.238   3.625   8.400
 6687W        W14089  10.489   2.442   8.895
 6688W        W14090   7.116   5.000   9.641
 6689W        W14091   2.421   9.281   8.586
 6690W        W14092   5.563   3.492   1.852
 6691W        W14093   1.988   3.470   0.399
 6692W        W14094  13.906   8.674   1.158
 6693W        W14095   1.000   1.769   8.205
 6694W        W14096   8.192   2.230   0.576
 6695W        W14097  18.815   0.151   0.789
 6696W        W14098  15.296   2.647   0.019
 6697W        W14099   8.425   7.757   8.669
 6698W        W14100   1.268   6.903   9.382
 6699W        W14101   1.497   6.408   2.250
 6700W        W14102   4.983   6.830   8.552
 6701W        W14103  15.747   6.722   9.940
 6702W        W14104  18.763   6.980   7.988
 6703W        W14105  11.092   8.008   7.616
 6704W        W14106   2.111   6.220   0.801
 6705W        W14107   6.171   3.560   7.830
 6706W        W14108  10.676   2.507   2.557
 6707W        W14109   2.659   0.930   2.230
 6708W        W14110   7.691   2.937   9.391
 6709W        W14111  14.184   8.428   7.800
 6710W        W14112   1.243   7.495   1.507
 6711W        W14113  13.281   5.031   1.273
 6712W        W14114   9.835   1.720   0.731
 6713W        W14115   8.156   8.412   1.872
 6714W        W14116   9.310   7.059   0.315
 6715W        W14117   5.612   9.474   1.489
 6716W        W14118   3.036   8.170   8.942
 6717W        W14119   7.460   0.114   0.880
 6718W        W14120   2.253   9.875   1.556
 6719W        W14121   7.954   9.865   1.674
 6720W        W14122   9.823   7.081   1.104
 6721W        W14123  12.578   2.978   1.834
 6722W        W14124  14.598   9.862   8.778
 6723W        W14125  13.430   9.840   7.935
 6724W        W14126   3.908   4.503   8.513
 6725W        W14127   9.423   3.709   0.312
 6726W        W14128  15.385   3.131   0.892
 6727W        W14129  11.663   2.905   1.206
 6728W        W14130   3.616   1.186   8.549
 6729W        W14131  19.721   5.512   9.328
 6730W        W14132  10.267   6.419   8.841
 6731W        W14133   6.032   0.019   8.612
 6732W        W14134  14.551   9.719   9.265
 6733W        W14135  19.663   3.826   8.600
 6734W        W14136   6.527   6.560   1.141
 6735W        W14137  17.977   6.392   7.736
 6736W        W14138  18.190   1.841   1.631
 6737W        W14139  17.406   0.807   9.023
 6738W        W14140  14.034   6.174   8.200
 6739W        W14141   1.609   9.721   8.425
 6740W        W14142   1.286   7.726   8.850
 6741W        W14143  18.234   2.576   0.073
 6742W        W14144   4.040   7.840   0.034
 6743W        W14145  19.373   9.683   9.737
 6744W        W14146  13.065   5.222   0.850
 6745W        W14147   9.133   1.703   0.069
 6746W        W14148  18.787   5.197   0.779
 6747W        W14149   4.417   6.838   1.625
 6748W        W14150   1.673   5.036   7.456
 6749W        W14151   3.938   3.551   9.379
 6750W        W14152  18.008   5.052   1.614
 6751W        W14153  10.800   0.175   8.096
 6752W        W14154  18.100   2.799   0.513
 6753W        W14155  18.009   3.064   1.212
 6754W        W14156   7.053   4.248   8.542
 6755W        W14157   2.060   3.493   0.942
 6756W        W14158  11.059   6.846   9.774
 6757W        W14159   1.070   9.261   1.428
 6758W        W14160   1.064   8.452   8.190
 6759W        W14161   2.692   7.275   2.134
 6760W        W14162   6.159   5.586   7.633
 6761W        W14163   7.030   5.343   0.462
 6762W        W14164  18.525   7.151   0.858
 6763W        W14165   0.859   7.483   1.859
 6764W        W14166   2.167   4.881   0.341
 6765W        W14167  18.244   4.593   1.705
 6766W        W14168   0.933   7.053   9.760
 6767W        W14169   1.558   5.544   7.664
 6768W        W14170  17.961   2.257   0.472
 6769W        W14171  14.844   8.738   9.005
 6770W        W14172   3.235   6.056   0.250
 6771W        W14173  16.603   8.420   7.874
 6772W        W14174   3.533   0.896   0.642
 6773W        W14175   7.295   3.477   1.952
 6774W        W14176  18.266   1.511   8.152
 6775W        W14177   9.555   7.987   0.173
 6776W        W14178   8.315   6.222   9.877
 6777W        W14179   1.333   6.873   7.662
 6778W        W14180   0.420   5.234   7.875
 6779W        W14181   3.271   9.399   8.265
 6780W        W14182   9.728   9.232   0.795
 6781W        W14183  14.400   3.044   7.619
 6782W        W14184   8.035   1.436   9.418
 6783W        W14185   7.453   8.212   2.482
 6784W        W14186  19.514   7.704   8.317
 6785W        W14187   9.309   2.246   9.277
 6786W        W14188  17.919   3.211   0.225
 6787W        W14189   5.383   8.372   8.470
 6788W        W14190   0.697   2.615   8.336
 6789W        W14191  17.932   6.258   0.937
 6790W        W14192  13.201   3.911   8.327
 6791W        W14193  15.378   5.622   8.706
 6792W        W14194  16.877   0.899   0.191
 6793W        W14195  19.228   4.663   8.650
 6794W        W14196   3.049   0.714   9.311
 6795W        W14197   2.847   3.155   0.734
 6796W        W14198  19.858   5.660   1.701
 6797W        W14199  11.391   9.107   9.918
 6798W        W14200  12.044   9.896   0.299
 6799W        W14201  16.456   5.868   1.365
 6800W        W14202  13.382   5.298   0.452
 6801W        W14203   1.382   8.034   9.824
 6802W        W14204   8.408   4.324   2.357
 6803W        W14205  14.876   6.777   8.558
 6804W        W14206  16.301   4.952   2.512
 6805W        W14207   5.160   8.647   8.056
 6806W        W14208  17.844   2.489   2.364
 6807W        W14209  19.814   8.906   1.132
 6808W        W14210   8.975   7.706   1.947
 6809W        W14211   3.639   9.329   8.611
 6810W        W14212   0.046   5.823   8.572
 6811W        W14213   0.967   2.722   9.968
 6812W        W14214  18.948   1.176   8.703
 6813W        W14215  15.305   6.480   8.530
 6814W        W14216   3.671   1.403   0.604
 6815W        W14217  15.334   8.718   0.693
 6816W        W14218  15.532   3.271   8.757
 6817W        W14219   5.724   7.112   0.333
 6818W        W14220  11.546   5.137   9.929
 6819W        W14221  17.131   7.667   1.243
 6820W        W14222   9.383   7.369   7.785
 6821W        W14223  18.878   2.635   2.250
 6822W        W14224  12.397   6.488   8.786
 6823W        W14225   9.891   4.335   8.005
 6824W        W14226   6.195   0.812   8.278
 6825W        W14227  14.124   6.865   0.554
 6826W        W14228   1.306   5.843   9.430
 6827W        W14229  12.789   2.502   7.837
 6828W        W14230  13.256   9.783   2.088
 6829W        W14231  12.955   2.135   0.672
 6830W        W14232   9.216   2.314   8.392
 6831W        W14233  11.173   4.763   7.477
 6832W        W14234   7.634   4.944   8.361
 6833W        W14235   6.555   9.849   8.474
 6834W        W14236   0.767   5.529   1.715
 6835W        W14237  12.441   0.968   2.065
 6836W        W14238  19.682   7.956   1.484
 6837W        W14239  16.344   3.525   8.596
 6838W        W14240   9.812   7.008   0.212
 6839W        W14241  10.259   6.109   9.287
 6840W        W14242   7.002   9.015   1.465
 6841W        W14243   4.886   1.563   9.259
 6842W        W14244  18.958   8.389   8.494
 6843W        W14245   9.187   0.658   1.293
 6844W        W14246   1.718   2.106   7.641
 6845W        W14247  15.587   7.915   0.479
 6846W        W14248  17.684   5.962   7.590
 6847W        W14249   0.823   3.212   2.556
 6848W        W14250  18.825   1.136   1.158
 6849W        W14251   1.909   2.252   8.591
 6850W        W14252  15.007   0.819   1.158
 6851W        W14253  13.689   8.425   7.655
 6852W        W14254  13.466   6.926   8.148
 6853W        W14255   3.638   1.783   1.849
 6854W        W14256  18.636   2.089   1.580
 6855W        W14257   4.015   5.633   1.073
 6856W        W14258  18.683   5.597   7.830
 6857W        W14259  13.645   5.400   0.037
 6858W        W14260  18.203   3.786   8.272
 6859W        W14261   5.935   2.129   8.930
 6860W        W14262   0.305   8.007   0.600
 6861W        W14263  15.088   5.733   7.483
 6862W        W14264  19.934   3.088   0.229
 6863W        W14265   7.130   4.397   1.464
 6864W        W14266   1.960   5.299   8.424
 6865W        W14267   6.985   9.030   2.459
 6866W        W14268   5.729   4.885   2.260
 6867W        W14269  17.782   4.575   8.732
 6868W        W14270   5.283   0.405   7.563
 6869W        W14271   4.754   4.378   9.686
 6870W        W14272  18.252   2.676   0.999
 6871W        W14273  12.726   3.437   9.019
 6872W        W14274   2.895   7.477   9.468
 6873W        W14275  15.784   2.556   9.780
 6874W        W14276  18.096   4.058   0.323
 6875W        W14277   8.341   9.533   0.095
 6876W        W14278  14.908   8.814   7.976
 6877W        W14279   3.258   7.373   9.844
 6878W        W14280  17.335   0.054   9.758
 6879W        W14281   5.545   6.445   0.404
 6880W        W14282   9.865   0.294   0.208
 6881W        W14283  11.397   9.474   9.117
 6882W        W14284  15.366   2.647   1.042
 6883W        W14285   8.726   1.863   2.196
 6884W        W14286   1.473   8.268   8.997
 6885W        W14287   3.234   1.391   8.835
 6886W        W14288   8.014   8.382   8.164
 6887W        W14289  15.370   6.217   9.818
 6888W        W14290  16.380   3.111   2.346
 6889W        W14291   6.788   2.308   9.265
 6890W        W14292  18.759   2.685   8.252
 6891W        W14293  13.328   2.605   1.668
 6892W        W14294  18.005   3.413   2.030
 6893W        W14295  15.503   7.560   1.901
 6894W        W14296  11.835   1.397   7.935
 6895W        W14297  17.224   6.091   1.345
 6896W        W14298  12.042   4.227   9.691
 6897W        W14299   9.726   6.420   9.776
 6898W        W14300   7.235   6.146   1.696
 6899W        W14301   5.731   3.168   2.202
 6900W        W14302  16.203   5.271   8.191
 6901W        W14303  12.242   0.298   9.747
 6902W        W14304  17.762   2.083   1.465
 6903W        W14305  19.241   5.115   1.381
 6904W        W14306   0.691   8.813   8.197
 6905W        W14307   0.107   0.490   1.322
 6906W        W14308   5.245   5.609   2.146
 6907W        W14309  17.151   6.258   7.752
 6908W        W14310   8.076   2.999   2.282
 6909W        W14311  18.617   2.713   0.412
 6910W        W14312   2.424   0.470   2.334
 6911W        W14313  19.305   3.250   9.823
 6912W        W14314  13.705   3.275   8.851
 6913W        W14315  16.037   4.818   2.089
 6914W        W14316   3.364   1.671   9.335
 6915W        W14317  14.021   8.100   0.492
 6916W        W14318  15.791   7.110   2.065
 6917W        W14319   5.205   9.786   2.248
 6918W        W14320  19.313   8.568   8.843
 6919W        W14321   6.200   8.951   0.423
 6920W        W14322   2.045   6.257   0.252
 6921W        W14323  18.490   4.351   7.598
 6922W        W14324   3.537   6.930   9.681
 6923W        W14325  18.774   0.890   2.440
 6924W        W14326   5.782   5.440   0.944
 6925W        W14327   1.252   4.529   1.115
 6926W        W14328   8.435   5.406   0.739
 6927W        W14329   9.998   8.205   2.090
 6928W        W14330  12.440   9.722   7.942
 6929W        W14331  13.633   5.871   9.807
 6930W        W14332  11.745   7.872   8.074
 6931W        W14333  16.512   5.538   0.986
 6932W        W14334   6.280   6.952   1.343
 6933W        W14335  12.966   5.439   9.499
 6934W        W14336  18.549   5.999   1.624
 6935W        W14337   9.093   8.151   2.183
 6936W        W14338  10.781   9.569   8.797
 6937W        W14339  12.666   6.968   8.760
 6938W        W14340  16.845   2.475   8.526
 6939W        W14341   0.628   3.406   9.887
 6940W        W14342   3.353   0.736   8.466
 6941W        W14343   3.254   6.346   7.437
 6942W        W14344   5.247   4.993   0.380
 6943W        W14345  19.795   3.559   0.943
 6944W        W14346   7.517   6.482   1.984
 6945W        W14347   7.097   2.693   0.551
 6946W        W14348  14.376   3.159   9.504
 6947W        W14349  16.790   2.888   7.456
 6948W        W14350   3.243   6.441   7.966
 6949W        W14351  13.712   9.430   0.125
 6950W        W14352   3.205   1.293   0.879
 6951W        W14353  11.300   5.585   0.665
 6952W        W14354  12.946   7.462   0.825
 6953W        W14355   4.922   4.516   0.366
 6954W        W14356  17.483   6.377   9.034
 6955W        W14357   6.327   2.746   2.432
 6956W        W14358   2.065   5.575   7.861
 6957W        W14359   9.807   8.219   9.740
 6958W        W14360  16.490   0.064   7.630
 6959W        W14361  15.721   0.242   1.360
 6960W        W14362   5.859   5.843   9.660
 6961W        W14363  14.964   0.660   2.443
 6962W        W14364   9.929   4.907   1.647
 6963W        W14365  14.841   4.443   8.980
 6964W        W14366   9.081   8.878   9.813
 6965W        W14367   1.570   2.843   2.027
 6966W        W14368  15.031   3.428   8.905
 6967W        W14369  17.387   0.832   0.213
 6968W        W14370   8.698   4.480   8.707
 6969W        W14371   8.024   5.308   8.365
 6970W        W14372  19.571   1.110   2.103
 6971W        W14373  16.914   2.487   7.993
 6972W        W14374   0.332   4.163   7.944
 6973W        W14375   5.613   9.020   2.240
 6974W        W14376  13.826   5.109   1.355
 6975W        W14377   0.971   0.255   1.109
 6976W        W14378  10.910   8.723   0.727
 6977W        W14379  17.594   1.151   1.619
 6978W        W14380   7.875   6.991   0.813
 6979W        W14381   0.092   7.160   7.942
 6980W        W14382  12.079   5.997   9.847
 6981W        W14383   1.724   8.663   9.244
 6982W        W14384   7.560   6.964   1.810
 6983W        W14385   3.209   5.281   1.323
 6984W        W14386   1.161   6.052   9.884
 6985W        W14387  12.328   6.018   9.393
 6986W        W14388   1.831   9.810   9.748
 6987W        W14389   0.318   4.862   2.030
 6988W        W14390  19.572   4.736   1.426
 6989W        W14391  18.408   6.516   1.799
 6990W        W14392   8.557   7.379   1.839
 6991W        W14393  19.361   3.373   0.720
 6992W        W14394  17.719   5.521   7.890
 6993W        W14395  19.055   9.522   9.070
 6994W        W14396  10.515   0.431   7.731
 6995W        W14397  19.315   6.411   8.380
 6996W        W14398   4.942   1.222   7.680
 6997W        W14399   0.390   0.145   9.553
 6998W        W14400   8.181   0.586   1.520
 6999W        W14401  13.422   4.573   9.367
 7000W        W14402  18.480   1.244   8.537
 7001W        W14403  19.755   4.507   7.952
 7002W        W14404   4.719   6.073   1.204
 7003W        W14405  16.294   1.637   1.266
 7004W        W14406  14.906   2.967   7.533
 7005W        W14407   3.216   0.653   2.192
 7006W        W14408  18.324   2.946   8.275
 7007W        W14409  17.305   9.881   8.191
 7008W        W14410   4.472   1.137   7.487
 7009W        W14411  14.576   6.670   2.217
 7010W        W14412  16.973   6.573   1.857
 7011W        W14413   8.330   0.807   2.367
 7012W        W14414   7.538   5.145   1.489
 7013W        W14415  11.809   2.508   1.502
 7014W        W14416   3.185   6.474   0.691
 7015W        W14417  15.909   3.519   1.691
 7016W        W14418  18.874   6.890   9.013
 7017W        W14419  15.258   9.469   0.918
 7018W        W14420   4.420   3.798   2.316
 7019W        W14421   5.489   5.666   9.968
 7020W        W14422   9.696   6.957   7.874
 7021W        W14423   6.669   0.974   1.718
 7022W        W14424   5.519   6.595   8.007
 7023W        W14425  18.447   9.720   1.152
 7024W        W14426  13.932   3.497   1.965
 7025W        W14427   7.992   7.471   8.688
 7026W        W14428   7.841   5.340   2.291
 7027W        W14429  17.243   6.996   2.423
 7028W        W14430   8.201   0.037   8.813
 7029W        W14431   0.196   3.278   8.820
 7030W        W14432  14.651   1.025   0.080
 7031W        W14433   3.417   6.864   8.324
 7032W        W14434  10.550   6.830   1.409
 7033W        W14435   0.198   5.526   9.547
 7034W        W14436  19.797   6.032   8.978
 7035W        W14437   8.952   7.447   8.139
 7036W        W14438   0.998   8.092   1.094
 7037W        W14439  11.609   9.888   1.078
 7038W        W14440   8.469   8.194   8.929
 7039W        W14441   6.689   2.497   0.289
 7040W        W14442  18.916   3.076   0.075
 7041W        W14443   7.696   7.837   0.267
 7042W        W14444   1.080   0.640   1.423
 7043W        W14445   6.255   4.591   0.131
 7044W        W14446  12.841   5.996   9.411
 7045W        W14447  15.859   3.117   2.374
 7046W        W14448  15.689   4.399   2.121
 7047W        W14449   3.609   3.732   9.755
 7048W        W14450   8.554   3.203   3.113
 7049W        W14451  19.331   5.597   1.545
 7050W        W14452   6.300   9.073   8.923
 7051W        W14453  16.938   4.408   2.335
 7052W        W14454  11.602   9.806   0.062
 7053W        W14455   2.359   5.080   9.896
 7054W        W14456  16.730   7.796   7.934
 7055W        W14457  10.269   8.780   1.514
 7056W        W14458   6.854   3.444   1.139
 7057W        W14459  11.010   0.476   7.554
 7058W        W14460   5.823   7.246   0.814
 7059W        W14461   7.007   6.688   0.318
 7060W        W14462  13.831   1.739   2.612
 7061W        W14463  19.759   8.491   8.460
 7062W        W14464  17.620   8.671   1.999
 7063W        W14465  16.210   3.952   1.640
 7064W        W14466   4.148   1.240   9.327
 7065W        W14467  10.760   6.019   0.267
 7066W        W14468   4.983   6.533   1.206
 7067W        W14469   4.314   1.303   2.203
 7068W        W14470   0.075   9.367   0.682
 7069W        W14471  16.627   3.381   0.375
 7070W        W14472  19.934   3.997   1.170
 7071W        W14473  18.279   7.650   8.281
 7072W        W14474   0.607   2.559   0.552
 7073W        W14475  18.588   1.605   1.366
 7074W        W14476   8.638   0.497   2.079
 7075W        W14477   8.448   9.166   0.463
 7076W        W14478   1.909   1.033   8.336
 7077W        W14479  17.542   2.125   9.659
 7078W        W14480  13.874   2.459   2.039
 7079W        W14481  13.628   0.205   9.631
 7080W        W14482  15.898   2.498   8.902
 7081W        W14483   8.294   5.746   8.430
 7082W        W14484   6.973   0.291   1.033
 7083W        W14485   2.508   6.168   0.491
 7084W        W14486   8.402   9.182   7.941
 7085W        W14487   6.411   5.706   1.609
 7086W        W14488  16.012   6.684   2.269
 7087W        W14489   6.159   4.104   1.414
 7088W        W14490  16.825   9.335   8.761
 7089W        W14491  19.887   7.011   9.310
 7090W        W14492   2.414   8.515   2.210
 7091W        W14493  16.100   8.592   0.439
 7092W        W14494   3.070   5.294   0.855
 7093W        W14495   1.815   9.290   9.828
 7094W        W14496  10.897   3.994   0.645
 7095W        W14497   8.436   3.634   8.489
 7096W        W14498  11.355   6.971   9.329
 7097W        W14499   8.524   2.703   1.799
 7098W        W14500  11.316   9.902   9.369
 7099W        W14501   5.667   0.716   0.159
 7100W        W14502  11.424   0.691   2.155
 7101W        W14503   3.345   3.085   2.083
 7102W        W14504  19.350   9.138   8.830
 7103W        W14505   9.644   4.011   2.057
 7104W        W14506  10.300   2.006   8.675
 7105W        W14507  11.381   1.677   9.269
 7106W        W14508   1.713   4.302   0.948
 7107W        W14509  11.754   4.434   0.414
 7108W        W14510  19.880   7.232   2.389
 7109W        W14511  12.962   1.852   8.318
 7110W        W14512  19.283   2.883   0.782
 7111W        W14513  12.742   2.744   8.311
 7112W        W14514  11.117   8.622   9.891
 7113W        W14515  12.449   3.287   0.033
 7114W        W14516  11.940   9.957   1.918
 7115W        W14517   6.888   9.282   8.306
 7116W        W14518   3.637   3.470   2.214
 7117W        W14519   9.787   2.943   9.337
 7118W        W14520   9.296   6.402   1.538
 7119W        W14521   1.611   9.449   0.920
 7120W        W14522   0.587   2.920   9.704
 7121W        W14523  13.659   0.877   7.708
 7122W        W14524  16.917   0.000   7.324
 7123W        W14525  15.161   0.232   1.078
 7124W        W14526   6.850   0.221   9.167
 7125W        W14527  19.834   7.298   0.386
 7126W        W14528  17.304   6.146   1.851
 7127W        W14529   9.280   9.185   7.710
 7128W        W14530  15.807   8.411   2.133
 7129W        W14531   2.547   8.717   1.750
 7130W        W14532  16.434   2.965   0.698
 7131W        W14533   6.570   0.321   9.594
 7132W        W14534  18.358   6.778   7.741
 7133W        W14535  17.055   5.708   2.376
 7134W        W14536  10.768   3.906   9.810
 7135W        W14537   0.600   8.314   8.989
 7136W        W14538  13.156   4.520   9.799
 7137W        W14539  13.961   6.537   1.393
 7138W        W14540   4.069   8.244   8.913
 7139W        W14541  11.276   4.556   9.091
 7140W        W14542  16.811   1.726   0.681
 7141W        W14543   5.676   9.371   9.760
 7142W        W14544  14.426   1.365   9.735
 7143W        W14545   6.689   2.462   1.336
 7144W        W14546   9.312   5.952   0.734
 7145W        W14547   5.456   2.181   9.724
 7146W        W14548  17.304   6.645   8.075
 7147W        W14549   7.047   5.661   1.684
 7148W        W14550  13.813   9.826   0.428
 7149W        W14551  18.724   3.586   0.340
 7150W        W14552   4.623   2.168   9.412
 7151W        W14553  17.389   9.169   1.262
 7152W        W14554   3.701   1.324   9.030
 7153W        W14555   7.075   7.193   1.792
 7154W        W14556  19.648   0.620   2.261
 7155W        W14557   4.893   3.184   8.998
 7156W        W14558   0.632   1.592   8.946
 7157W        W14559   8.260   1.743   9.073
 7158W        W14560   2.085   6.994   9.795
 7159W        W14561  15.513   5.981   8.359
 7160W        W14562   8.413   4.478   8.276
 7161W        W14563   2.196   4.072   8.183
 7162W        W14564   6.650   4.394   8.226
 7163W        W14565   8.092   2.673   9.534
 7164W        W14566   6.949   0.270   1.541
 7165W        W14567   9.681   2.573   9.012
 7166W        W14568  14.641   8.379   2.339
 7167W        W14569   6.950   8.201   2.693
 7168W        W14570  19.159   0.261   1.161
 7169W        W14571   0.763   7.449   1.349
 7170W        W14572  18.355   5.442   1.607
 7171W        W14573  15.386   4.591   9.822
 7172W        W14574  18.528   4.831   9.868
 7173W        W14575   7.394   3.055   7.899
 7174W        W14576   2.583   7.041   1.692
 7175W        W14577  19.399   6.841   9.176
 7176W        W14578  16.536   2.072   9.971
 7177W        W14579   4.794   7.447   9.758
 7178W        W14580  13.099   6.502   0.163
 7179W        W14581  15.022   8.481   7.601
 7180W        W14582  10.551   3.370   2.327
 7181W        W14583   3.715   0.731   7.676
 7182W        W14584   0.363   1.990   8.728
 7183W        W14585  10.041   4.167   1.451
 7184W        W14586  16.412   9.217   1.608
 7185W        W14587   6.179   5.252   2.408
 7186W        W14588   6.292   8.091   9.288
 7187W        W14589  17.936   6.454   2.833
 7188W        W14590  15.476   3.443   0.125
 7189W        W14591   4.855   5.138   2.286
 7190W        W14592   7.236   7.601   0.774
 7191W        W14593   7.112   1.151   1.941
 7192W        W14594  11.120   9.858   0.272
 7193W        W14595   1.094   9.028   7.980
 7194W        W14596   1.390   2.199   8.743
 7195W        W14597   2.615   2.695   0.672
 7196W        W14598  10.780   7.377   0.996
 7197W        W14599  15.068   3.072   1.824
 7198W        W14600  13.125   8.224   8.984
 7199W        W14601   8.497   4.508   0.820
 7200W        W14602   0.149   0.824   9.119
 7201W        W14603   5.684   8.422   8.886
 7202W        W14604   2.267   9.152   8.117
 7203W        W14605   4.110   4.012   8.459
 7204W        W14606   6.878   6.299   0.856
 7205W        W14607   9.691   1.777   1.301
 7206W        W14608   0.481   6.790   9.965
 7207W        W14609   1.148   6.162   8.940
 7208W        W14610  17.976   5.940   0.215
 7209W        W14611  19.496   7.738   9.669
 7210W        W14612   3.159   4.373   7.675
 7211W        W14613   5.201   4.178   1.880
 7212W        W14614  15.919   8.130   1.246
 7213W        W14615   2.635   4.413   7.406
 7214W        W14616  18.771   0.591   1.100
 7215W        W14617  19.666   2.727   1.102
 7216W        W14618   0.670   9.038   2.594
 7217W        W14619   9.545   4.845   2.078
 7218W        W14620   3.422   9.481   1.116
 7219W        W14621  17.034   2.075   9.792
 7220W        W14622  11.811   6.032   9.373
 7221W        W14623  19.396   6.037   8.039
 7222W        W14624   8.283   2.973   2.741
 7223W        W14625   2.636   6.427   9.036
 7224W        W14626   1.511   4.301   0.167
 7225W        W14627   3.984   2.176   2.622
 7226W        W14628  17.118   8.465   7.639
 7227W        W14629   3.879   2.611   9.280
 7228W        W14630   1.132   7.615   1.004
 7229W        W14631  13.493   0.203   8.343
 7230W        W14632  16.536   6.772   1.278
 7231W        W14633  11.445   9.002   2.244
 7232W        W14634   2.109   3.079   9.113
 7233W        W14635  11.496   5.457   1.736
 7234W        W14636  15.218   5.733   0.765
 7235W        W14637   5.270   5.773   7.514
 7236W        W14638  16.922   0.712   2.193
 7237W        W14639   8.488   7.739   9.718
 7238W        W14640   3.548   3.042   8.543
 7239W        W14641  16.289   7.784   9.257
 7240W        W14642   2.178   6.725   0.707
 7241W        W14643   9.568   3.539   2.330
 7242W        W14644   4.251   5.802   1.495
 7243W        W14645   1.099   7.132   1.131
 7244W        W14646   7.064   6.303   2.157
 7245W        W14647   3.926   8.702   9.463
 7246W        W14648   4.918   0.859   1.742
 7247W        W14649   1.284   2.296   7.846
 7248W        W14650   6.530   0.359   2.118
 7249W        W14651  18.422   0.209   8.004
 7250W        W14652   2.768   5.374   9.905
 7251W        W14653   1.900   1.474   0.390
 7252W        W14654  15.075   1.067   9.193
 7253W        W14655  16.904   1.271   0.885
 7254W        W14656  17.175   2.968   9.545
 7255W        W14657   4.370   7.282   8.425
 7256W        W14658   7.618   5.385   9.139
 7257W        W14659  12.076   5.999   0.753
 7258W        W14660  16.229   2.479   0.727
 7259W        W14661   8.045   4.835   1.610
 7260W        W14662  11.206   9.357   2.571
 7261W        W14663   7.525   5.129   0.942
 7262W        W14664   1.830   3.051   1.107
 7263W        W14665   4.323   8.386   9.355
 7264W        W14666  18.896   2.077   1.139
 7265W        W14667  13.723   6.576   1.854
 7266W        W14668  12.027   9.924   1.372
 7267W        W14669   4.616   5.591   8.407
 7268W        W14670  16.273   4.549   8.830
 7269W        W14671   9.921   9.516   1.196
 7270W        W14672   6.355   1.727   9.805
 7271W        W14673  17.973   9.798   0.977
 7272W        W14674  13.879   0.144   8.663
 7273W        W14675  15.515   4.644   8.368
 7274W        W14676  11.023   0.342   2.127
 7275W        W14677  15.357   3.511   8.176
 7276W        W14678   1.837   5.061   8.872
 7277W        W14679   4.265   6.772   9.212
 7278W        W14680   5.710   4.110   1.151
 7279W        W14681  13.827   1.447   2.176
 7280W        W14682   2.199   7.425   1.793
 7281W        W14683  15.146   6.258   9.267
 7282W        W14684   3.072   6.760   8.762
 7283W        W14685  16.936   5.452   0.726
 7284W        W14686  15.861   4.422   0.830
 7285W        W14687  19.853   1.527   2.255
 7286W        W14688  10.953   3.425   9.923
 7287W        W14689  10.589   2.263   2.103
 7288W        W14690  17.960   2.157   9.974
 7289W        W14691  12.958   5.068   0.348
 7290W        W14692   9.789   1.982   0.289
 7291W        W14693  13.539   2.302   8.984
 7292W        W14694   1.404   9.605   8.879
 7293W        W14695  16.520   1.246   9.957
 7294W        W14696   3.199   5.752   2.472
 7295W        W14697   0.309   4.058   8.457
 7296W        W14698  19.008   9.032   9.224
 7297W        W14699  11.887   3.087   2.166
 7298W        W14700   9.338   2.632   2.149
 7299W        W14701  12.574   3.050   0.942
 7300W        W14702   7.527   2.021   0.511
 7301W        W14703   7.441   0.417   8.381
 7302W        W14704  14.957   9.623   9.520
 7303W        W14705  11.643   1.179   9.235
 7304W        W14706   0.632   9.060   7.720
 7305W        W14707  18.711   6.346   0.484
 7306W        W14708   9.699   1.728   8.766
 7307W        W14709   9.898   1.251   1.358
 7308W        W14710   6.221   4.066   1.931
 7309W        W14711   9.049   5.203   8.258
 7310W        W14712  11.580   5.362   2.226
 7311W        W14713   3.211   2.990   0.172
 7312W        W14714   3.744   9.471   9.083
 7313W        W14715  18.973   4.956   0.189
 7314W        W14716   7.466   8.894   0.727
 7315W        W14717   9.119   4.889   2.415
 7316W        W14718   4.328   3.819   9.651
 7317W        W14719   0.812   2.348   1.894
 7318W        W14720  19.395   5.081   8.357
 7319W        W14721   8.234   9.512   0.805
 7320W        W14722  13.855   9.657   1.428
 7321W        W14723   7.293   8.056   0.493
 7322W        W14724  16.576   1.255   8.380
 7323W        W14725  11.941   5.634   1.515
 7324W        W14726   2.132   6.515   7.918
 7325W        W14727  12.399   8.604   9.995
 7326W        W14728  15.368   0.715   0.249
 7327W        W14729  11.929   8.735   9.141
 7328W        W14730  14.931   3.652   8.449
 7329W        W14731  15.834   4.651   7.926
 7330W        W14732  13.001   9.908   9.792
 7331W        W14733   5.253   2.831   8.936
 7332W        W14734   9.477   3.043   8.929
 7333W        W14735  11.041   5.144   0.852
 7334W        W14736   0.536   7.000   8.171
 7335W        W14737   0.882   1.830   1.281
 7336W        W14738   7.901   9.644   8.694
 7337W        W14739  15.830   5.552   7.937
 7338W        W14740   3.141   2.093   0.261
 7339W        W14741   9.388   2.191   1.191
 7340W        W14742   1.950   2.691   8.834
 7341W        W14743   1.113   5.636   8.948
 7342W        W14744  10.862   7.916   9.350
 7343W        W14745  13.360   1.992   0.985
 7344W        W14746  18.329   5.268   9.631
 7345W        W14747   1.963   9.436   1.607
 7346W        W14748   7.175   1.906   7.542
 7347W        W14749  14.107   3.058   1.502
 7348W        W14750  10.394   0.233   9.906
 7349W        W14751  18.640   4.453   1.387
 7350W        W14752  14.175   8.448   9.314
 7351W        W14753   8.048   2.553   2.019
 7352W        W14754   4.400   6.905   7.749
 7353W        W14755  12.866   6.124   7.868
 7354W        W14756  18.601   7.612   0.074
 7355W        W14757  19.550   6.968   0.703
 7356W        W14758  13.888   9.648   0.913
 7357W        W14759  13.243   3.671   7.867
 7358W        W14760  10.687   0.753   8.114
 7359W        W14761  15.480   8.771   1.995
 7360W        W14762   7.845   9.097   2.373
 7361W        W14763   9.782   3.403   0.113
 7362W        W14764   4.885   3.442   9.466
 7363W        W14765  11.846   9.212   7.576
 7364W        W14766  13.193   3.430   8.818
 7365W        W14767  18.194   0.962   0.649
 7366W        W14768   4.953   7.464   2.144
 7367W        W14769  15.038   3.624   9.383
 7368W        W14770  17.689   0.932   0.610
 7369W        W14771   3.669   3.056   9.412
 7370W        W14772  11.995   0.775   0.822
 7371W        W14773   0.572   9.217   9.119
 7372W        W14774   3.436   0.758   9.624
 7373W        W14775   6.096   5.463   1.956
 7374W        W14776   4.550   5.597   1.108
 7375W        W14777  11.257   3.421   1.164
 7376W        W14778  17.443   6.351   0.035
 7377W        W14779   6.674   8.336   9.993
 7378W        W14780  12.878   8.746   9.175
 7379W        W14781  14.839   7.456   1.185
 7380W        W14782   2.502   6.237   9.992
 7381W        W14783  10.749   1.290   2.459
 7382W        W14784   5.085   3.030   1.468
 7383W        W14785   7.677   9.747   1.196
 7384W        W14786  19.519   7.725   0.218
 7385W        W14787   4.979   5.869   0.802
 7386W        W14788  16.148   3.973   9.855
 7387W        W14789   1.623   1.795   8.980
 7388W        W14790   1.400   9.235   0.484
 7389W        W14791  11.180   0.960   7.775
 7390W        W14792   0.608   2.433   8.806
 7391W        W14793   3.838   6.827   7.693
 7392W        W14794   9.250   6.874   7.617
 7393W        W14795   0.296   6.157   8.920
 7394W        W14796   8.889   8.323   8.114
 7395W        W14797   9.318   4.479   1.356
 7396W        W14798   0.415   4.117   2.488
 7397W        W14799  10.929   5.991   8.024
 7398W        W14800   1.672   9.702   7.902
 7399W        W14801  17.790   9.009   8.971
 7400W        W14802  13.382   7.434   0.534
 7401W        W14803  11.218   3.116   9.596
 7402W        W14804   6.792   2.559   2.319
 7403W        W14805   2.215   8.327   1.760
 7404W        W14806   2.495   2.292   9.433
 7405W        W14807  10.184   5.365   1.507
 7406W        W14808  12.083   6.428   0.153
 7407W        W14809  19.641   7.144   8.788
 7408W        W14810  12.957   4.367   0.630
 7409W        W14811  15.870   7.261   9.790
 7410W        W14812  17.294   2.540   9.845
 7411W        W14813   8.722   4.271   0.032
 7412W        W14814  17.497   8.179   2.116
 7413W        W14815   4.125   5.910   8.971
 7414W        W14816  18.026   5.045   8.636
 7415W        W14817  19.375   5.126   9.376
 7416W        W14818  18.918   2.222   9.122
 7417W        W14819   4.541   2.569   1.974
 7418W        W14820  12.192   1.329   8.579
 7419W        W14821   9.601   1.479   8.337
 7420W        W14822  13.669   2.739   8.074
 7421W        W14823   4.195   8.213   2.487
 7422W        W14824   4.342   3.033   2.160
 7423W        W14825   6.541   6.431   2.126
 7424W        W14826  16.558   8.257   1.790
 7425W        W14827   5.892   6.759   2.600
 7426W        W14828   4.316   9.896   8.055
 7427W        W14829  18.380   9.853   9.720
 7428W        W14830  16.997   0.368   7.683
 7429W        W14831  15.961   1.976   1.048
 7430W        W14832   5.495   5.878   0.865
 7431W        W14833   6.267   1.826   1.308
 7432W        W14834  13.886   0.774   0.417
 7433W        W14835  11.655   4.237   8.949
 7434W        W14836   6.890   2.618   8.235
 7435W        W14837  10.360   2.686   1.304
 7436W        W14838  13.632   6.992   8.614
 7437W        W14839  14.408   9.000   8.609
 7438W        W14840  14.429   7.449   7.982
 7439W        W14841   4.533   3.819   8.737
 7440W        W14842   7.588   7.350   9.489
 7441W        W14843   3.377   8.673   2.204
 7442W        W14844   4.409   7.457   1.270
 7443W        W14845  19.578   4.522   2.518
 7444W        W14846  11.284   6.884   0.820
 7445W        W14847   6.367   9.897   1.733
 7446W        W14848  16.384   6.550   0.829
 7447W        W14849   7.940   6.568   9.243
 7448W        W14850  15.250   4.496   7.908
 7449W        W14851   2.224   9.996   7.975
 7450W        W14852  13.421   9.324   1.629
 7451W        W14853   1.725   9.551   9.298
 7452W        W14854   7.599   9.940   8.405
 7453W        W14855  14.477   5.184   7.679
 7454W        W14856  10.117   8.895   0.220
 7455W        W14857  11.999   4.589   1.371
 7456W        W14858   8.993   3.893   1.180
 7457W        W14859   1.408   1.243   0.857
 7458W        W14860  11.956   7.876   8.533
 7459W        W14861  11.337   7.826   1.545
 7460W        W14862  13.319   3.946   0.522
 7461W        W14863   6.180   2.730   1.514
 7462W        W14864   0.380   5.194   8.837
 7463W        W14865  13.809   0.726   9.419
 7464W        W14866   4.067   6.947   9.715
 7465W        W14867  10.801   7.892   1.709
 7466W        W14868   1.092   4.668   8.927
 7467W        W14869  19.217   6.265   2.169
 7468W        W14870   7.552   6.901   9.771
 7469W        W14871   0.145   0.190   9.989
 7470W        W14872   6.213   0.267   0.016
 7471W        W14873  19.946   3.927   0.119
 7472W        W14874   7.550   6.860   7.735
 7473W        W14875   3.179   7.343   0.740
 7474W        W14876  12.344   5.566   9.666
 7475W        W14877   4.333   8.234   0.244
 7476W        W14878   0.897   0.390   8.124
 7477W        W14879  18.077   9.217   0.175
 7478W        W14880  15.995   6.318   1.906
 7479W        W14881   7.684   0.240   8.830
 7480W        W14882   6.787   8.545   1.475
 7481W        W14883  16.927   1.631   2.088
 7482W        W14884   9.061   7.936   0.461
 7483W        W14885   6.206   9.176   7.898
 7484W        W14886  11.105   7.826   1.086
 7485W        W14887   5.509   3.207   7.530
 7486W        W14888  15.888   1.654   8.345
 7487W        W14889   0.207   3.497   0.157
 7488W        W14890  19.631   2.479   1.936
 7489W        W14891  13.370   0.480   9.242
 7490W        W14892   8.006   7.016   0.016
 7491W        W14893  16.476   3.034   8.433
 7492W        W14894  18.848   6.505   8.215
 7493W        W14895   7.075   7.394   1.235
 7494W        W14896  12.530   4.154   9.906
 7495W        W14897   6.684   4.784   9.844
 7496W        W14898   4.036   5.403   1.717
 7497W        W14899   9.427   4.906   8.081
 7498W        W14900  13.905   4.198   8.863
 7499W        W14901  18.756   6.636   0.885
 7500W        W14902   9.946   5.114   9.807
 7501W        W14903   9.214   6.463   9.854
 7502W        W14904  15.490   7.927   1.501
 7503W        W14905   3.299   4.482   9.392
 7504W        W14906   0.593   3.482   8.571
 7505W        W14907  18.484   8.528   8.371
 7506W        W14908  19.033   7.536   0.819
 7507W        W14909   5.691   6.358   9.551
 7508W        W14910  15.642   6.887   7.915
 7509W        W14911   8.889   7.419   9.672
 7510W        W14912   7.150   7.980   8.976
 7511W        W14913  17.432   9.726   0.145
 7512W        W14914   9.652   8.021   1.244
 7513W        W14915   3.671   9.431   1.760
 7514W        W14916  19.204   4.162   9.452
 7515W        W14917   7.733   5.722   8.294
 7516W        W14918  15.128   2.162   1.899
 7517W        W14919  17.364   5.396   1.065
 7518W        W14920   8.109   7.924   9.985
 7519W        W14921   1.793   5.167   7.936
 7520W        W14922   8.319   5.291   0.238
 7521W        W14923  11.145   7.794   8.929
 7522W        W14924   8.284   0.817   8.371
 7523W        W14925  11.036   3.502   2.182
 7524W        W14926   9.881   3.716   1.648
 7525W        W14927  10.015   8.666   2.413
 7526W        W14928   9.549   0.570   1.975
 7527W        W14929   7.927   6.103   9.022
 7528W        W14930   8.673   9.233   9.748
 7529W        W14931   5.391   8.658   9.381
 7530W        W14932  17.301   8.713   1.557
 7531W        W14933  15.992   6.065   0.517
 7532W        W14934  16.003   1.304   9.965
 7533W        W14935  16.833   7.536   9.962
 7534W        W14936   5.294   2.678   9.815
 7535W        W14937  10.866   8.750   9.170
 7536W        W14938  16.048   6.567   0.405
 7537W        W14939  12.862   5.147   7.902
 7538W        W14940  17.221   6.769   9.803
 7539W        W14941   9.415   0.113   7.966
 7540W        W14942   5.570   3.105   8.283
 7541W        W14943  18.475   5.072   8.855
 7542W        W14944  16.369   5.347   7.710
 7543W        W14945   1.876   5.585   2.170
 7544W        W14946  14.528   2.235   9.085
 7545W        W14947   9.121   9.870   0.322
 7546W        W14948   3.193   8.282   9.414
 7547W        W14949  18.399   7.317   1.455
 7548W        W14950   8.615   8.038   1.757
 7549W        W14951  16.426   2.541   8.229
 7550W        W14952  15.623   2.301   1.801
 7551W        W14953   5.528   5.633   8.441
 7552W        W14954  17.120   3.476   0.366
 7553W        W14955   5.684   4.108   0.646
 7554W        W14956  15.897   8.500   9.940
 7555W        W14957   2.414   0.959   8.761
 7556W        W14958  10.192   5.547   8.855
 7557W        W14959   4.672   8.712   8.252
 7558W        W14960   6.357   8.180   8.205
 7559W        W14961  17.571   7.301   9.735
 7560W        W14962   6.129   1.311   1.222
 7561W        W14963   2.414   5.403   8.658
 7562W        W14964  14.970   5.306   8.867
 7563W        W14965   5.392   4.691   9.106
 7564W        W14966  14.001   5.416   9.680
 7565W        W14967  13.593   6.392   8.122
 7566W        W14968  15.421   3.520   1.484
 7567W        W14969   8.052   8.780   9.490
 7568W        W14970  11.317   5.551   9.672
 7569W        W14971   4.588   0.103   0.867
 7570W        W14972  17.529   7.453   1.465
 7571W        W14973   4.378   4.887   0.882
 7572W        W14974  17.790   8.886   8.000
 7573W        W14975   5.948   8.010   0.659
 7574W        W14976  10.863   6.745   8.466
 7575W        W14977  16.969   4.471   8.943
 7576W        W14978  12.418   1.652   9.320
 7577W        W14979  19.391   4.989   2.328
 7578W        W14980  19.782   1.914   9.898
 7579W        W14981   8.147   3.169   9.335
 7580W        W14982   7.044   7.715   2.453
 7581W        W14983   9.353   1.758   0.892
 7582W        W14984   9.053   1.245   0.370
 7583W        W14985  19.067   2.808   8.999
 7584W        W14986   3.544   5.639   1.531
 7585W        W14987  12.969   9.115   1.397
 7586W        W14988   7.525   2.097   9.999
 7587W        W14989   2.616   7.159   8.212
 7588W        W14990   4.054   0.607   2.336
 7589W        W14991  18.707   4.517   0.275
 7590W        W14992   1.343   0.255   0.674
 7591W        W14993  18.062   4.791   9.092
 7592W        W14994   4.952   2.189   9.843
 7593W        W14995   1.116   4.703   8.084
 7594W        W14996   0.684   6.091   7.644
 7595W        W14997  12.323   9.432   7.529
 7596W        W14998   9.643   1.617   9.913
 7597W        W14999  19.167   0.720   8.183
 7598W        W15000   0.216   7.499   9.237
 7599W        W15001   1.041   8.425   8.792
 7600W        W15002   2.228   4.985   8.114
 7601W        W15003   7.136   2.162   8.342
 7602W        W15004  17.335   0.406   2.203
 7603W        W15005   9.234   6.651   8.976
 7604W        W15006  19.269   6.579   0.857
 7605W        W15007  11.822   6.426   0.593
 7606W        W15008   7.118   6.107   8.967
 7607W        W15009  10.224   4.752   0.878
 7608W        W15010  12.738   2.557   8.937
 7609W        W15011   9.431   3.621   1.327
 7610W        W15012  16.440   0.780   1.239
 7611W        W15013  12.714   7.825   1.588
 7612W        W15014  12.704   7.375   8.446
 7613W        W15015   1.560   9.139   9.042
 7614W        W15016   4.805   8.693   1.436
 7615W        W15017   1.437   0.580   8.864
 7616W        W15018   7.016   5.717   0.808
 7617W        W15019  11.871   6.943   9.314
 7618W        W15020  11.134   8.205   0.730
 7619W        W15021   5.800   1.240   0.826
 7620W        W15022   6.048   3.704   0.095
 7621W        W15023  16.804   9.715   2.263
 7622W        W15024  19.693   6.754   8.419
 7623W        W15025  17.101   1.308   0.398
 7624W        W15026  14.326   9.313   9.472
 7625W        W15027   1.154   0.914   9.932
 7626W        W15028   6.661   0.670   0.827
 7627W        W15029   1.704   8.936   0.191
 7628W        W15030   7.934   6.972   7.371
 7629W        W15031   3.235   5.458   8.878
 7630W        W15032   9.822   7.401   8.777
 7631W        W15033  15.682   2.347   1.303
 7632W        W15034   6.713   1.789   9.041
 7633W        W15035   3.334   0.311   0.291
 7634W        W15036   6.731   0.212   0.068
 7635W        W15037  13.788   0.574   1.413
 7636W        W15038  16.937   8.777   8.782
 7637W        W15039  14.505   9.717   9.776
 7638W        W15040   3.329   6.816   7.624
 7639W        W15041  10.475   7.483   2.399
 7640W        W15042   0.620   2.741   1.605
 7641W        W15043   0.647   6.647   2.115
 7642W        W15044  10.236   0.584   0.376
 7643W        W15045  18.929   2.127   2.551
 7644W        W15046  15.447   0.730   9.326
 7645W        W15047   0.725   9.285   9.793
 7646W        W15048   3.593   2.815   9.853
 7647W        W15049   5.616   1.833   7.733
 7648W        W15050  14.815   7.875   9.855
 7649W        W15051   6.631   4.878   0.827
 7650W        W15052   5.698   4.988   1.200
 7651W        W15053  18.831   6.295   9.716
 7652W        W15054   8.773   6.038   9.300
 7653W        W15055  11.106   0.776   1.354
 7654W        W15056  11.499   4.184   0.802
 7655W        W15057   9.026   6.627   0.310
 7656W        W15058   9.614   9.619   1.704
 7657W        W15059   2.136   9.918   2.151
 7658W        W15060   9.530   8.417   0.942
 7659W        W15061   4.001   9.062   9.820
 7660W        W15062   3.422   6.480   1.169
 7661W        W15063  10.422   4.648   0.326
 7662W        W15064   1.143   1.895   0.163
 7663W        W15065  17.431   6.940   9.355
 7664W        W15066   1.498   7.343   7.781
 7665W        W15067   7.964   6.281   0.229
 7666W        W15068   0.881   9.738   2.174
 7667W        W15069  15.475   9.027   1.089
 7668W        W15070   7.620   8.415   0.631
 7669W        W15071  10.024   2.414   0.492
 7670W        W15072  16.382   8.675   0.010
 7671W        W15073  12.302   5.790   8.534
 7672W        W15074   7.587   7.800   9.232
 7673W        W15075  19.224   6.521   9.968
 7674W        W15076   2.397   1.236   1.912
 7675W        W15077   3.090   7.033   1.899
 7676W        W15078  14.471   0.190   9.954
 7677W        W15079  12.434   4.181   7.978
 7678W        W15080  11.376   9.451   1.110
 7679W        W15081  15.727   2.374   0.801
 7680W        W15082  15.645   3.948   1.642
 7681W        W15083   1.179   7.404   9.266
 7682W        W15084  19.225   1.622   8.298
 7683W        W15085   0.676   2.427   9.543
 7684W        W15086   0.155   6.485   9.676
 7685W        W15087  11.313   7.352   1.050
 7686W        W15088  10.131   2.147   9.592
 7687W        W15089   2.069   1.703   9.782
 7688W        W15090   2.461   4.039   2.065
 7689W        W15091   4.876   6.918   7.501
 7690W        W15092  16.428   5.862   0.079
 7691W        W15093  19.987   3.143   1.211
 7692W        W15094   8.652   0.646   8.006
 7693W        W15095  16.799   3.184   9.247
 7694W        W15096   9.461   1.152   0.096
 7695W        W15097   4.375   2.156   2.243
 7696W        W15098  10.954   3.477   8.504
 7697W        W15099  19.181   4.426   1.016
 7698W        W15100   9.261   0.622   0.789
 7699W        W15101  15.457   9.739   9.425
 7700W        W15102  17.900   2.271   0.970
 7701W        W15103   2.332   2.147   9.902
 7702W        W15104   6.320   1.763   1.826
 7703W        W15105   1.073   2.680   8.664
 7704W        W15106   8.578   3.611   1.295
 7705W        W15107   0.118   7.893   1.882
 7706W        W15108   0.275   8.733   1.293
 7707W        W15109  14.277   0.873   8.662
 7708W        W15110  19.801   5.256   9.762
 7709W        W15111   3.791   4.160   1.877
 7710W        W15112   5.344   6.516   9.928
 7711W        W15113   2.970   6.085   9.795
 7712W        W15114   9.804   7.513   0.073
 7713W        W15115   6.539   7.429   1.351
 7714W        W15116   5.130   5.933   8.994
 7715W        W15117   1.302   7.293   2.052
 7716W        W15118  11.872   0.950   8.782
 7717W        W15119   4.678   0.336   9.689
 7718W        W15120   5.205   5.019   0.923
 7719W        W15121   1.709   6.447   8.259
 7720W        W15122   7.016   3.784   8.831
 7721W        W15123  15.943   0.720   1.213
 7722W        W15124  15.996   0.259   9.753
 7723W        W15125  18.059   5.039   0.057
 7724W        W15126   9.424   8.865   8.130
 7725W        W15127   0.475   3.940   0.278
 7726W        W15128   6.993   9.802   9.910
 7727W        W15129   2.678   5.805   2.377
 7728W        W15130  18.989   5.941   9.369
 7729W        W15131   7.586   5.709   1.571
 7730W        W15132   5.581   4.938   9.554
 7731W        W15133  12.582   2.060   8.020
 7732W        W15134  19.659   2.946   8.800
 7733W        W15135   3.131   0.329   9.830
 7734W        W15136  17.883   8.414   2.407
 7735W        W15137   4.339   4.761   8.354
 7736W        W15138   1.628   3.504   9.786
 7737W        W15139  14.585   4.974   0.937
 7738W        W15140  11.412   3.626   7.625
 7739W        W15141   7.456   2.909   8.953
 7740W        W15142  17.652   5.494   7.386
 7741W        W15143  12.167   6.548   8.311
 7742W        W15144  18.637   6.987   1.768
 7743W        W15145   7.951   6.569   9.775
 7744W        W15146   4.855   4.217   8.855
 7745W        W15147   7.472   4.463   7.619
 7746W        W15148  12.167   0.157   8.404
 7747W        W15149   6.696   0.685   8.356
 7748W        W15150  17.825   3.612   9.217
 7749W        W15151   2.759   4.983   9.564
 7750W        W15152  11.821   5.643   8.700
 7751W        W15153  10.363   2.986   7.474
 7752W        W15154  15.792   6.915   0.651
 7753W        W15155  15.090   9.636   2.682
 7754W        W15156   7.163   8.865   7.989
 7755W        W15157  10.974   0.811   1.868
 7756W        W15158   3.973   0.272   1.174
 7757W        W15159  14.810   9.142   9.329
 7758W        W15160  13.491   0.053   0.096
 7759W        W15161   4.436   5.443   2.472
 7760W        W15162   2.752   4.153   2.523
 7761W        W15163  17.916   0.245   7.642
 7762W        W15164   3.121   1.718   9.829
 7763W        W15165   2.689   3.676   2.326
 7764W        W15166  10.283   7.030   9.276
 7765W        W15167  19.412   4.106   1.367
 7766W        W15168  15.169   2.652   2.068
 7767W        W15169   5.008   4.606   2.142
 7768W        W15170  15.390   7.293   2.330
 7769W        W15171  14.207   8.940   0.267
 7770W        W15172  13.816   5.010   0.442
 7771W        W15173  15.208   6.675  10.001
 7772W        W15174  13.387   2.395   2.152
 7773W        W15175   9.116   1.149   1.867
 7774W        W15176   0.029   1.405   1.229
 7775W        W15177  10.325   7.955   0.598
 7776W        W15178   1.355   4.092   8.845
 7777W        W15179   8.934   9.171   8.108
 7778W        W15180   4.408   9.304   1.220
 7779W        W15181   8.007   5.667   9.337
 7780W        W15182   6.229   1.734   8.809
 7781W        W15183   1.234   9.468   1.878
 7782W        W15184  12.064   5.137   9.804
 7783W        W15185   0.189   0.686   8.637
 7784W        W15186   3.089   0.749   0.436
 7785W        W15187  17.384   7.467   8.430
 7786W        W15188   6.606   6.681   9.203
 7787W        W15189  14.961   9.096   0.596
 7788W        W15190  10.879   0.264   0.082
 7789W        W15191  13.419   0.615   8.654
 7790W        W15192  13.231   8.481   9.422
 7791W        W15193  11.393   8.190   9.834
 7792W        W15194  17.692   0.053   2.108
 7793W        W15195   7.278   4.527   9.342
 7794W        W15196  18.328   2.529   8.597
 7795W        W15197  13.643   0.317   0.533
 7796W        W15198   1.135   7.829   2.100
 7797W        W15199  13.068   3.049   0.740
 7798W        W15200  15.439   1.193   7.971
 7799W        W15201   2.454   5.442   8.154
 7800W        W15202  11.924   7.367   7.997
 7801W        W15203  16.970   0.391   0.807
 7802W        W15204  15.344   4.500   0.826
 7803W        W15205  14.264   7.023   2.408
 7804W        W15206  19.680   2.613   0.606
 7805W        W15207  17.722   9.770   9.485
 7806W        W15208   7.818   8.576   2.489
 7807W        W15209  18.005   5.916   8.469
 7808W        W15210  15.653   4.812   1.747
 7809W        W15211   5.298   4.106   9.831
 7810W        W15212  18.096   7.310   9.740
 7811W        W15213  16.008   7.848   0.775
 7812W        W15214   8.767   7.072   0.365
 7813W        W15215   6.556   3.791   0.855
 7814W        W15216  11.992   4.891   8.385
 7815W        W15217  12.364   9.606   9.196
 7816W        W15218  14.420   4.894   9.976
 7817W        W15219  16.320   7.488   9.910
 7818W        W15220  16.788   6.489   8.029
 7819W        W15221   8.179   1.415   0.429
 7820W        W15222  10.968   1.770   7.945
 7821W        W15223  11.856   7.325   1.045
 7822W        W15224   5.678   6.129   0.040
 7823W        W15225   1.394   6.087   0.657
 7824W        W15226   8.017   7.920   8.947
 7825W        W15227   2.134   7.531   8.912
 7826W        W15228  16.891   5.113   1.084
 7827W        W15229   4.714   7.323   1.674
 7828W        W15230   3.293   5.233   2.296
 7829W        W15231  12.123   9.037   1.613
 7830W        W15232   9.074   7.192   1.163
 7831W        W15233   9.978   5.839   1.484
 7832W        W15234   1.000   3.297   1.145
 7833W        W15235  10.663   9.789   0.055
 7834W        W15236   1.251   3.222   7.923
 7835W        W15237   6.668   6.924   8.756
 7836W        W15238  10.258   9.599   2.344
 7837W        W15239   9.361   2.655   9.860
 7838W        W15240  12.435   0.796   0.570
 7839W        W15241   5.659   9.024   1.719
 7840W        W15242  13.085   3.615   0.973
 7841W        W15243  19.535   9.729   9.238
 7842W        W15244  11.667   9.119   9.352
 7843W        W15245   5.086   1.159   1.088
 7844W        W15246   1.564   7.342   1.127
 7845W        W15247   4.549   8.853   9.236
 7846W        W15248   2.823   8.548   0.244
 7847W        W15249  17.148   0.385   0.122
 7848W        W15250   2.289   9.703   0.588
 7849W        W15251  19.475   9.395   7.757
 7850W        W15252   6.620   0.660   0.310
 7851W        W15253   1.625   3.798   0.241
 7852W        W15254   3.707   9.168   0.773
 7853W        W15255  11.069   6.866   7.781
 7854W        W15256   9.662   0.181   2.341
 7855W        W15257   6.320   3.294   0.366
 7856W        W15258  12.429   9.096   9.845
 7857W        W15259  10.682   2.628   0.008
 7858W        W15260   1.372   1.518   0.428
 7859W        W15261  16.348   6.996   2.469
 7860W        W15262  17.836   1.629   2.271
 7861W        W15263  14.696   8.321   7.972
 7862W        W15264   0.710   3.938   7.692
 7863W        W15265  13.862   4.739   8.914
 7864W        W15266  17.014   6.574   0.225
 7865W        W15267  15.753   4.096   8.573
 7866W        W15268   4.063   3.445   2.502
 7867W        W15269   9.424   1.300   1.127
 7868W        W15270  11.340   7.282   9.740
 7869W        W15271   6.075   3.677   0.615
 7870W        W15272  19.230   4.499   0.157
 7871W        W15273  10.919   7.959   8.508
 7872W        W15274   6.254   5.938   2.252
 7873W        W15275  16.433   6.079   9.198
 7874W        W15276  10.601   7.444   1.902
 7875W        W15277  12.702   1.297   1.091
 7876W        W15278  19.479   9.355   8.282
 7877W        W15279  16.470   7.451   2.312
 7878W        W15280   3.782   5.112   9.812
 7879W        W15281  11.562   6.016   0.744
 7880W        W15282   1.587   6.332   1.097
 7881W        W15283   9.860   0.911   0.287
 7882W        W15284   1.365   0.429   9.343
 7883W        W15285   1.751   3.116   7.659
 7884W        W15286   6.705   7.383   8.999
 7885W        W15287  19.391   1.984   1.228
 7886W        W15288  12.307   0.348   0.299
 7887W        W15289   4.031   0.321   8.885
 7888W        W15290  17.315   3.716   0.858
 7889W        W15291  15.243   7.539   0.418
 7890W        W15292   5.551   1.264   8.432
 7891W        W15293  16.197   2.388   1.243
 7892W        W15294  15.866   5.357   9.404
 7893W        W15295   5.040   3.617   0.143
 7894W        W15296  13.916   1.481   1.072
 7895W        W15297  10.828   6.104   1.375
 7896W        W15298   4.615   9.644   1.539
 7897W        W15299   6.172   4.687   2.443
 7898W        W15300  19.408   1.527   1.880
 7899W        W15301  16.365   5.482   9.224
 7900W        W15302  10.359   5.869   8.317
 7901W        W15303   5.147   9.739   0.254
 7902W        W15304   7.071   1.339   8.234
 7903W        W15305  16.403   5.050   1.166
 7904W        W15306   5.225   3.491   8.251
 7905W        W15307  11.793   6.866   0.820
 7906W        W15308   6.586   6.614   1.656
 7907W        W15309   3.579   2.652   1.904
 7908W        W15310   9.559   6.243   1.117
 7909W        W15311  10.338   8.196   9.772
 7910W        W15312   3.291   9.852   8.531
 7911W        W15313   8.781   9.051   7.646
 7912W        W15314   2.718   2.705   8.507
 7913W        W15315   6.523   1.392   7.837
 7914W        W15316   3.550   5.594   7.313
 7915W        W15317  15.825   2.010   9.062
 7916W        W15318  17.402   5.659   1.555
 7917W        W15319   6.945   9.765   8.972
 7918W        W15320  11.377   7.343   8.881
 7919W        W15321  11.622   1.499   9.684
 7920W        W15322  13.221   8.322   0.772
 7921W        W15323  14.087   2.166   1.665
 7922W        W15324   1.794   3.942   8.495
 7923W        W15325   1.240   8.757   9.135
 7924W        W15326   1.578   8.700   2.105
 7925W        W15327  13.391   1.529   1.182
 7926W        W15328   3.100   0.293   1.273
 7927W        W15329   8.571   4.084   1.514
 7928W        W15330  12.919   8.856   7.700
 7929W        W15331   3.158   7.861   0.653
 7930W        W15332   1.471   3.358   1.873
 7931W        W15333  15.399   9.068   2.437
 7932W        W15334  14.326   4.321   1.775
 7933W        W15335   8.095   7.462   0.741
 7934W        W15336   0.098   9.345   9.342
 7935W        W15337   2.177   7.931   1.107
 7936W        W15338   8.496   3.574   0.314
 7937W        W15339  17.500   4.163   1.031
 7938W        W15340  16.718   2.552   0.508
 7939W        W15341  17.353   4.319   9.633
 7940W        W15342  10.397   8.015   8.453
 7941W        W15343   5.494   6.510   1.242
 7942W        W15344  16.673   1.648   9.686
 7943W        W15345   9.887   7.425   1.489
 7944W        W15346  14.544   2.742   8.304
 7945W        W15347   4.190   2.740   8.044
 7946W        W15348   1.982   5.671   1.643
 7947W        W15349  16.278   7.025   0.668
 7948W        W15350  11.333   7.508   0.192
 7949W        W15351   1.080   2.275   8.325
 7950W        W15352   3.788   9.804   1.378
 7951W        W15353  18.317   0.952   9.878
 7952W        W15354  19.762   0.194   1.610
 7953W        W15355   0.899   5.149   8.968
 7954W        W15356   4.093   0.118   0.707
 7955W        W15357   2.428   2.587   1.130
 7956W        W15358   2.723   3.196   7.917
 7957W        W15359   7.970   6.642   1.794
 7958W        W15360   9.762   0.575   0.656
 7959W        W15361  19.196   2.365   8.328
 7960W        W15362  14.235   0.445   1.681
 7961W        W15363  19.803   1.071   9.754
 7962W        W15364  10.800   6.928   0.246
 7963W        W15365  19.901   5.895   8.035
 7964W        W15366   3.606   1.829   8.897
 7965W        W15367  15.613   8.427   7.984
 7966W        W15368  17.299   0.777   8.422
 7967W        W15369   0.232   2.871   2.333
 7968W        W15370   7.511   6.406   8.485
 7969W        W15371   6.587   4.279   9.512
 7970W        W15372   0.998   0.142   7.687
 7971W        W15373   4.299   5.385   0.711
 7972W        W15374  17.353   3.437   9.415
 7973W        W15375   1.582   4.568   8.785
 7974W        W15376  11.443   3.523   8.192
 7975W        W15377   9.059   4.657   8.375
 7976W        W15378   7.153   4.719   8.288
 7977W        W15379  18.650   9.234   8.925
 7978W        W15380  13.387   1.549   2.415
 7979W        W15381   9.405   7.555   0.395
 7980W        W15382   7.362   7.056   0.799
 7981W        W15383  10.487   5.318   1.017
 7982W        W15384   1.764   3.042   0.594
 7983W        W15385  19.140   5.771   0.606
 7984W        W15386  13.159   9.352   8.087
 7985W        W15387  10.142   4.075   1.956
 7986W        W15388  10.892   9.374   0.295
 7987W        W15389   9.056   0.645   1.808
 7988W        W15390  10.656   6.367   2.161
 7989W        W15391   7.835   6.527   1.039
 7990W        W15392  12.030   6.501   1.083
 7991W        W15393   2.479   7.913   1.972
 7992W        W15394   8.822   7.442   8.649
 7993W        W15395   8.830   5.018   8.695
 7994W        W15396  19.761   6.388   8.083
 7995W        W15397  17.674   3.004   9.342
 7996W        W15398   5.298   9.415   1.093
 7997W        W15399   7.911   4.347   7.855
 7998W        W15400   2.317   4.141   9.769
 7999W        W15401   8.687   3.192   8.448
 8000W        W15402  19.593   4.434   1.972
 8001W        W15403  11.345   2.699   7.751
 8002W        W15404  13.104   0.235   2.328
 8003W        W15405  18.979   5.805   2.171
 8004W        W15406   0.229   7.017   2.056
 8005W        W15407   5.318   9.970   7.937
 8006W        W15408   6.683   3.543   7.788
 8007W        W15409  15.965   5.941   1.540
 8008W        W15410   3.682   5.038   1.869
 8009W        W15411   1.721   4.612   2.475
 8010W        W15412   2.561   9.841   1.114
 8011W        W15413  17.599   5.142   9.805
 8012W        W15414  18.462   7.185   2.426
 8013W        W15415   8.308   1.700   8.541
 8014W        W15416   5.799   3.396   8.895
 8015W        W15417   1.148   8.758   1.349
 8016W        W15418  19.599   3.412   9.430
 8017W        W15419   4.221   8.817   1.942
 8018W        W15420   7.575   7.785   8.714
 8019W        W15421  14.893   5.376   8.374
 8020W        W15422  14.833   8.057   2.004
 8021W        W15423  10.697   6.740   2.538
 8022W        W15424  12.009   3.074   8.743
 8023W        W15425   8.858   2.076   1.736
 8024W        W15426   1.210   7.217   8.791
 8025W        W15427  14.953   7.026   2.162
 8026W        W15428  15.830   5.521   8.444
 8027W        W15429  16.749   6.971   9.944
 8028W        W15430  14.444   7.107   1.930
 8029W        W15431   1.657   0.029   2.313
 8030W        W15432  16.115   7.029   0.178
 8031W        W15433  11.648   3.330   0.454
 8032W        W15434   0.124   0.319   9.121
 8033W        W15435   3.719   5.170   1.380
 8034W        W15436   7.678   9.447   1.616
 8035W        W15437   9.925   1.493   7.766
 8036W        W15438  10.325   4.532   1.759
 8037W        W15439  18.879   2.306   0.662
 8038W        W15440   2.991   4.097   9.351
 8039W        W15441   9.185   8.882   1.241
 8040W        W15442   2.361   1.807   8.267
 8041W        W15443  19.280   2.405   0.967
 8042W        W15444  10.895   7.187   2.306
 8043W        W15445   9.762   7.297   9.618
 8044W        W15446   3.435   6.041   0.882
 8045W        W15447  15.665   9.035   1.569
 8046W        W15448   7.545   5.387   8.633
 8047W        W15449   6.307   7.441   9.958
 8048W        W15450   6.587   1.403   8.738
 8049W        W15451   1.780   5.844   0.398
 8050W        W15452   6.227   7.287   7.627
 8051W        W15453  14.029   7.083   8.235
 8052W        W15454  18.148   8.738   2.051
 8053W        W15455  15.447   0.849   2.100
 8054W        W15456   5.857   4.084   8.845
 8055W        W15457  13.057   3.544   0.299
 8056W        W15458   4.016   7.352   0.316
 8057W        W15459   3.431   1.055   1.870
 8058W        W15460  18.761   9.296   1.322
 8059W        W15461  13.382   4.254   0.918
 8060W        W15462   7.957   6.122   8.507
 8061W        W15463   0.389   6.373   0.827
 8062W        W15464   6.037   8.309   1.104
 8063W        W15465   3.434   2.274   0.662
 8064W        W15466   3.050   9.731   9.327
 8065W        W15467   9.537   7.783   9.684
 8066W        W15468   7.690   0.771   1.515
 8067W        W15469   6.760   6.885   2.100
 8068W        W15470  13.494   3.245   8.025
 8069W        W15471  14.634   7.964   1.539
 8070W        W15472   9.589   3.050   8.078
 8071W        W15473   5.376   9.854   1.743
 8072W        W15474  12.902   2.994   9.236
 8073W        W15475  11.666   0.299   8.078
 8074W        W15476   0.365   7.074   9.534
 8075W        W15477  18.871   8.817   1.470
 8076W        W15478  18.795   4.643   8.344
 8077W        W15479  18.735   3.984   9.594
 8078W        W15480   7.969   1.143   0.819
 8079W        W15481   7.451   9.905   1.677
 8080W        W15482   0.191   3.687   0.636
 8081W        W15483  11.866   9.631   9.261
 8082W        W15484  10.974   9.646   7.655
 8083W        W15485   2.736   0.567   1.881
 8084W        W15486  11.823   0.306   0.046
 8085W        W15487   8.992   3.475   1.550
 8086W        W15488   5.152   3.555   7.747
 8087W        W15489   4.119   8.735   8.984
 8088W        W15490   4.424   5.204   2.011
 8089W        W15491  15.418   8.936   8.283
 8090W        W15492   6.062   1.260   8.028
 8091W        W15493   0.295   0.073   8.689
 8092W        W15494  11.918   7.864   9.397
 8093W        W15495   2.085   3.851   9.413
 8094W        W15496  18.316   2.442   8.109
 8095W        W15497  12.044   5.609   9.200
 8096W        W15498   5.716   1.842   2.400
 8097W        W15499   5.784   7.990   0.174
 8098W        W15500  13.826   9.783   9.392
 8099W        W15501   6.769   0.236   0.572
 8100W        W15502   8.757   2.658   0.860
 8101W        W15503  14.271   5.070   8.416
 8102W        W15504  14.939   7.972   7.462
 8103W        W15505   6.992   9.826   0.788
 8104W        W15506   5.527   7.409   1.187
 8105W        W15507  10.653   3.576   0.376
 8106W        W15508  11.458   0.237   2.386
 8107W        W15509  15.629   9.497   1.292
 8108W        W15510   0.124   6.105   1.772
 8109W        W15511  14.254   9.898   1.680
 8110W        W15512   1.307   1.292   9.553
 8111W        W15513   4.224   1.322   1.692
 8112W        W15514  19.830   0.319   7.537
 8113W        W15515  12.803   2.598   0.938
 8114W        W15516  14.627   4.424   9.790
 8115W        W15517   4.345   1.635   8.395
 8116W        W15518  18.570   1.396   0.009
 8117W        W15519  12.480   9.906   1.121
 8118W        W15520   0.924   7.497   8.449
 8119W        W15521  19.230   9.791   8.148
 8120W        W15522  12.153   0.241   7.906
 8121W        W15523  10.976   5.238   8.234
 8122W        W15524  14.294   2.647   1.811
 8123W        W15525   4.758   5.076   1.211
 8124W        W15526  11.298   6.442   0.576
 8125W        W15527  18.498   0.750   0.306
 8126W        W15528  18.160   4.675   2.207
 8127W        W15529  12.884   3.023   8.729
 8128W        W15530   8.480   1.383   2.076
 8129W        W15531   0.011   6.698   7.739
 8130W        W15532  14.252   9.385   1.706
 8131W        W15533   1.238   1.046   7.771
 8132W        W15534   3.171   3.538   0.934
 8133W        W15535  14.143   9.849   8.997
 8134W        W15536   9.352   2.147   2.263
 8135W        W15537  14.334   4.930   0.475
 8136W        W15538  14.875   1.463   9.989
 8137W        W15539  10.343   4.919   1.347
 8138W        W15540   9.266   4.112   8.441
 8139W        W15541  15.261   9.355   9.151
 8140W        W15542   1.915   3.314   1.575
 8141W        W15543  15.330   6.242   1.195
 8142W        W15544   3.672   9.058   0.262
 8143W        W15545  13.846   0.238   9.174
 8144W        W15546  14.161   6.871   1.054
 8145W        W15547   7.529   6.864   8.232
 8146W        W15548   5.656   1.248   8.935
 8147W        W15549  18.979   0.581   0.224
 8148W        W15550   5.444   0.116   8.437
 8149W        W15551  16.098   9.860   8.296
 8150W        W15552  12.125   4.360   9.102
 8151W        W15553   5.537   6.072   8.727
 8152W        W15554   6.634   9.435   8.765
 8153W        W15555   2.851   7.612   8.210
 8154W        W15556  12.140   1.036   8.166
 8155W        W15557  11.916   5.202   1.833
 8156W        W15558   1.395   1.312   9.032
 8157W        W15559   7.268   6.864   2.217
 8158W        W15560   7.201   8.931   9.979
 8159W        W15561  10.413   4.401   2.268
 8160W        W15562   1.217   9.143   9.994
 8161W        W15563  11.190   9.424   1.582
 8162W        W15564  13.487   8.140   0.333
 8163W        W15565  15.889   5.012   1.216
 8164W        W15566  11.792   8.716   7.665
 8165W        W15567   8.641   4.871   0.050
 8166W        W15568   7.424   3.896   8.469
 8167W        W15569  11.297   6.012   0.283
 8168W        W15570   3.656   9.949   1.838
 8169W        W15571  18.650   7.181   9.784
 8170W        W15572  16.395   6.806   7.893
 8171W        W15573  13.556   1.910   8.647
 8172W        W15574   3.944   2.390   0.767
 8173W        W15575   7.858   1.597   8.754
 8174W        W15576  19.203   9.321   1.015
 8175W        W15577  18.717   6.214   2.069
 8176W        W15578  13.956   9.854   9.888
 8177W        W15579  17.809   5.437   8.377
 8178W        W15580  16.330   9.139   0.758
 8179W        W15581   1.922   3.419   8.519
 8180W        W15582   6.506   4.461   2.133
 8181W        W15583   9.982   0.372   7.673
 8182W        W15584  17.099   5.133   9.008
 8183W        W15585   9.436   5.992   9.727
 8184W        W15586   8.000   2.089   1.760
 8185W        W15587  16.582   4.111   2.044
 8186W        W15588   8.163   9.212   9.741
 8187W        W15589   5.952   9.830   9.863
 8188W        W15590  15.167   1.809   9.735
 8189W        W15591  17.720   6.175   1.497
 8190W        W15592  15.603   7.145   0.219
 8191W        W15593  14.510   6.552   0.419
 8192W        W15594  14.569   0.987   2.348
 8193W        W15595   8.377   6.893   7.635
 8194W        W15596  16.050   0.308   7.892
 8195W        W15597  18.300   4.623   8.576
 8196W        W15598  15.557   6.104   0.768
 8197W        W15599   7.595   2.239   1.500
 8198W        W15600   8.824   6.950   9.430
 8199W        W15601   5.367   1.979   0.608
 8200W        W15602   7.604   1.324   2.168
 8201W        W15603   3.605   7.761   2.419
 8202W        W15604  15.766   2.105   8.570
 8203W        W15605   5.377   4.624   1.745
 8204W        W15606  11.868   0.309   0.571
 8205W        W15607   7.823   0.850   7.734
 8206W        W15608  16.493   7.402   8.978
 8207W        W15609  12.998   1.331   9.603
 8208W        W15610   3.961   1.045   0.337
 8209W        W15611   8.295   1.816   9.740
 8210W        W15612  10.559   1.881   9.669
 8211W        W15613  10.460   9.685   9.215
 8212W        W15614  17.103   8.229   8.987
 8213W        W15615   7.606   8.690   8.194
 8214W        W15616   0.613   0.456   1.455
 8215W        W15617  12.148   6.937   8.726
 8216W        W15618   5.281   2.475   9.350
 8217W        W15619   2.322   0.319   0.398
 8218W        W15620  13.928   1.550   9.196
 8219W        W15621  17.283   9.142   8.829
 8220W        W15622   2.761   4.149   8.898
 8221W        W15623  17.240   6.763   0.734
 8222W        W15624  11.698   0.138   8.603
 8223W        W15625   6.698   5.569   7.578
 8224W        W15626   0.475   3.297   2.171
 8225W        W15627  16.345   9.797   2.029
 8226W        W15628  19.471   3.182   1.222
 8227W        W15629  18.669   1.498   7.845
 8228W        W15630  19.323   7.700   1.210
 8229W        W15631   8.099   4.341   1.641
 8230W        W15632   1.398   1.027   8.607
 8231W        W15633   6.782   5.308   9.920
 8232W        W15634   6.722   1.956   1.549
 8233W        W15635   6.775   5.628   1.244
 8234W        W15636   3.823   8.151   1.184
 8235W        W15637  12.636   2.268   8.493
 8236W        W15638   4.067   8.312   9.795
 8237W        W15639  18.444   6.754   8.769
 8238W        W15640   8.956   2.955   1.315
 8239W        W15641   2.432   2.376   1.989
 8240W        W15642   8.034   9.353   8.267
 8241W        W15643  13.650   7.845   1.264
 8242W        W15644   8.986   3.635   8.429
 8243W        W15645  15.028   1.029   9.724
 8244W        W15646   2.361   0.809   1.558
 8245W        W15647  11.335   3.680   0.700
 8246W        W15648   9.377   9.416   0.448
 8247W        W15649   1.644   6.932   8.061
 8248W        W15650   8.409   7.301   8.390
 8249W        W15651  11.260   2.571   1.115
 8250W        W15652   1.624   0.893   9.312
 8251W        W15653  18.197   8.517   0.500
 8252W        W15654   0.177   1.508   8.722
 8253W        W15655   7.430   3.115   9.810
 8254W        W15656  15.943   3.492   9.921
 8255W        W15657   1.306   2.408   2.017
 8256W        W15658   3.057   7.201   8.479
 8257W        W15659   9.870   3.727   1.086
 8258W        W15660   2.841   3.397   9.410
 8259W        W15661   0.119   2.961   8.415
 8260W        W15662   4.580   5.393   9.434
 8261W        W15663  12.327   0.346   0.837
 8262W        W15664  19.820   8.012   7.575
 8263W        W15665  14.778   2.516   1.718
 8264W        W15666   3.823   8.659   1.096
 8265W        W15667  13.969   7.604   8.867
 8266W        W15668  19.394   1.151   8.463
 8267W        W15669   4.503   0.354   8.265
 8268W        W15670   4.784   5.943   0.314
 8269W        W15671  18.248   1.662   8.723
 8270W        W15672   9.655   0.486   1.481
 8271W        W15673  14.507   7.830   1.071
 8272W        W15674  14.780   4.935   9.172
 8273W        W15675  16.113   1.563   1.750
 8274W        W15676   0.395   6.635   8.680
 8275W        W15677  12.844   1.740   1.823
 8276W        W15678   6.196   1.403   0.508
 8277W        W15679  10.308   7.016   0.146
 8278W        W15680  19.395   2.277   9.938
 8279W        W15681  16.308   6.935   9.155
 8280W        W15682   4.841   3.876   9.734
 8281W        W15683  14.410   6.679   8.230
 8282W        W15684   6.123   6.282   9.823
 8283W        W15685  13.450   3.948   8.776
 8284W        W15686  10.915   2.202   9.859
 8285W        W15687  15.521   2.806   9.010
 8286W        W15688  19.505   6.828   9.672
 8287W        W15689   6.840   3.012   0.857
 8288W        W15690  14.250   7.472   0.163
 8289W        W15691  14.384   2.739   8.789
 8290W        W15692   2.791   9.707   1.570
 8291W        W15693  12.265   4.296   1.840
 8292W        W15694   4.179   1.332   8.809
 8293W        W15695   3.523   5.361   0.181
 8294W        W15696  15.821   0.107   9.276
 8295W        W15697  13.211   6.105   8.247
 8296W        W15698  16.731   3.847   8.454
 8297W        W15699  11.107   9.282   8.002
 8298W        W15700  15.959   2.005   1.563
 8299W        W15701   4.123   9.142   9.284
 8300W        W15702   9.387   0.538   9.283
 8301W        W15703   7.203   0.520   7.931
 8302W        W15704   3.138   6.883   1.003
 8303W        W15705   5.689   0.409   8.811
 8304W        W15706   6.263   8.691   8.128
 8305W        W15707  12.466   1.759   8.440
 8306W        W15708   8.691   2.668   9.972
 8307W        W15709  13.082   3.063   1.713
 8308W        W15710  16.021   4.504   8.382
 8309W        W15711  14.410   2.213   8.596
 8310W        W15712  12.919   0.261   9.052
 8311W        W15713  16.701   4.837   9.730
 8312W        W15714  15.648   1.852   2.426
 8313W        W15715  17.534   3.873   7.649
 8314W        W15716  18.150   9.775   8.756
 8315W        W15717  11.416   0.302   0.840
 8316W        W15718  14.989   8.801   9.746
 8317W        W15719   4.473   6.556   1.171
 8318W        W15720  18.028   0.635   9.603
 8319W        W15721   8.152   9.299   1.713
 8320W        W15722  13.172   7.743   9.176
 8321W        W15723   6.612   4.209   0.564
 8322W        W15724  19.990   0.075   2.085
 8323W        W15725   3.274   4.855   1.592
 8324W        W15726   0.140   2.745   9.891
 8325W        W15727  10.266   3.175   8.500
 8326W        W15728  13.879   4.327   9.350
 8327W        W15729  18.562   8.443   9.760
 8328W        W15730   2.082   4.833   1.592
 8329W        W15731  13.656   6.481   2.637
 8330W        W15732   5.475   6.344   2.150
 8331W        W15733  16.033   2.284   7.381
 8332W        W15734  10.851   1.725   9.272
 8333W        W15735  11.939   8.289   1.147
 8334W        W15736  15.110   3.669   1.118
 8335W        W15737  19.621   0.223   9.109
 8336W        W15738   4.649   5.116   8.584
 8337W        W15739   3.668   1.284   9.550
 8338W        W15740  13.255   8.275   7.960
 8339W        W15741  11.069   5.534   2.065
 8340W        W15742   9.016   6.278   1.125
 8341W        W15743  17.395   7.457   9.293
 8342W        W15744   9.373   2.177   1.710
 8343W        W15745   6.604   8.506   1.946
 8344W        W15746   7.967   5.121   1.194
 8345W        W15747  11.275   3.015   2.170
 8346W        W15748   8.877   0.768   0.478
 8347W        W15749  16.910   2.171   1.303
 8348W        W15750  11.895   9.401   0.258
 8349W        W15751  14.164   6.997   1.536
 8350W        W15752   9.760   4.822   0.676
 8351W        W15753   1.689   2.573   7.988
 8352W        W15754  17.113   8.765   1.095
 8353W        W15755  13.493   0.950   9.039
 8354W        W15756   9.854   3.680   8.785
 8355W        W15757  14.772   6.595   7.891
 8356W        W15758  15.067   5.457   1.185
 8357W        W15759  16.761   5.546   8.885
 8358W        W15760  14.790   2.028   8.322
 8359W        W15761  10.741   4.241   0.216
 8360W        W15762   6.904   0.654   9.880
 8361W        W15763   2.072   6.503   9.777
 8362W        W15764   3.663   0.497   1.981
 8363W        W15765   5.847   0.435   8.348
 8364W        W15766   5.943   0.771   9.085
 8365W        W15767   7.466   4.510   2.199
 8366W        W15768  17.988   3.678   8.731
 8367W        W15769   9.280   3.520   8.843
 8368W        W15770  16.329   8.672   9.411
 8369W        W15771   4.854   3.013   2.294
 8370W        W15772  16.654   0.815   9.719
 8371W        W15773   2.160   1.600   1.662
 8372W        W15774  13.141   6.218   1.621
 8373W        W15775  18.130   1.814   1.124
 8374W        W15776   3.331   2.454   8.100
 8375W        W15777   7.623   4.515   1.716
 8376W        W15778   7.966   7.023   8.962
 8377W        W15779   2.364   3.493   1.399
 8378W        W15780   6.268   7.669   8.953
 8379W        W15781   3.626   8.960   9.030
 8380W        W15782   6.335   2.569   9.263
 8381W        W15783  17.559   3.927   8.698
 8382W        W15784   2.195   0.787   2.024
 8383W        W15785   0.491   0.316   2.105
 8384W        W15786   5.254   8.931   1.435
 8385W        W15787  14.730   8.390   9.923
 8386W        W15788   4.366   4.171   0.016
 8387W        W15789   2.302   0.633   7.222
 8388W        W15790  15.899   1.568   8.842
 8389W        W15791  11.554   9.519   9.646
 8390W        W15792  11.520   1.054   2.503
 8391W        W15793  18.100   1.599   9.221
 8392W        W15794  11.078   9.633   0.732
 8393W        W15795   9.816   6.298   1.594
 8394W        W15796  15.285   1.611   2.690
 8395W        W15797  19.183   5.552   0.108
 8396W        W15798  17.832   2.923   8.429
 8397W        W15799  17.716   1.840   0.784
 8398W        W15800  13.793   7.666   0.340
 8399W        W15801   0.406   6.564   1.660
 8400W        W15802   1.518   5.504   1.797
 8401W        W15803   9.306   7.418   8.772
 8402W        W15804  12.923   3.219   1.259
 8403W        W15805  10.109   8.404   9.332
 8404W        W15806  19.908   4.684   0.636
 8405W        W15807  17.450   1.371   0.766
 8406W        W15808  10.630   5.555   7.994
 8407W        W15809   5.974   2.308   2.430
 8408W        W15810  12.491   9.948   0.017
 8409W        W15811   4.761   8.238   1.196
 8410W        W15812  14.499   5.446   9.781
 8411W        W15813  17.498   5.859   8.429
 8412W        W15814  14.777   0.328   8.669
 8413W        W15815   2.685   2.151   1.180
 8414W        W15816  11.398   7.115   2.090
 8415W        W15817  12.558   5.609   9.199
 8416W        W15818   6.038   0.155   2.471
 8417W        W15819  17.967   4.159   1.811
 8418W        W15820   7.195   0.856   8.339
 8419W        W15821   0.803   5.528   7.710
 8420W        W15822  19.121   4.538   1.499
 8421W        W15823  16.552   2.923   0.189
 8422W        W15824   3.015   4.872   2.056
 8423W        W15825   4.841   0.571   0.170
 8424W        W15826   7.161   8.267   1.269
 8425W        W15827   9.956   6.580   1.041
 8426W        W15828   0.864   9.260   8.423
 8427W        W15829  12.314   6.848   0.356
 8428W        W15830   8.597   1.825   1.300
 8429W        W15831   1.103   1.044   1.959
 8430W        W15832   4.873   9.456   1.994
 8431W        W15833   9.513   2.674   1.656
 8432W        W15834   0.726   5.925   9.092
 8433W        W15835   8.456   4.605   1.913
 8434W        W15836  18.425   8.794   0.123
 8435W        W15837  14.607   8.889   1.948
 8436W        W15838   1.518   9.654   1.488
 8437W        W15839  18.360   2.601   9.562
 8438W        W15840   8.883   4.574   0.430
 8439W        W15841  12.555   5.100   9.560
 8440W        W15842   8.222   3.250   0.644
 8441W        W15843  16.287   7.071   1.973
 8442W        W15844   4.585   5.576   8.943
 8443W        W15845   8.384   6.384   8.385
 8444W        W15846  10.794   5.540   9.699
 8445W        W15847   0.766   3.435   7.823
 8446W        W15848   9.355   5.303   1.939
 8447W        W15849  13.960   8.097   9.018
 8448W        W15850  11.099   4.318   9.833
 8449W        W15851  14.337   5.069   1.383
 8450W        W15852  16.978   0.106   8.653
 8451W        W15853   6.233   6.863   2.201
 8452W        W15854   1.107   0.842   9.432
 8453W        W15855  14.252   6.013   7.379
 8454W        W15856   1.561   2.139   8.250
 8455W        W15857  16.256   9.662   0.714
 8456W        W15858  13.657   6.929   1.047
 8457W        W15859  13.830   5.527   0.533
 8458W        W15860  10.869   9.075   9.885
 8459W        W15861  18.856   8.032   9.941
 8460W        W15862   9.906   8.434   8.039
 8461W        W15863   3.650   5.524   2.024
 8462W        W15864  13.515   9.430   0.620
 8463W        W15865   1.723   3.322   3.020
 8464W        W15866   1.695   1.819   1.667
 8465W        W15867  13.859   1.564   0.036
 8466W        W15868  10.271   5.119   0.198
 8467W        W15869   4.164   6.463   7.776
 8468W        W15870  14.421   8.760   8.161
 8469W        W15871   2.136   8.760   1.431
 8470W        W15872  16.004   2.055   0.537
 8471W        W15873  14.336   7.975   0.057
 8472W        W15874  14.414   7.438   1.448
 8473W        W15875  18.456   4.190   1.947
 8474W        W15876  14.974   1.585   8.500
 8475W        W15877   6.014   5.896   0.826
 8476W        W15878   9.968   0.380   1.095
 8477W        W15879   7.657   9.187   8.789
 8478W        W15880  19.965   9.986   1.190
 8479W        W15881  11.567   2.837   0.256
 8480W        W15882  16.559   0.497   7.938
 8481W        W15883  15.449   5.582   0.113
 8482W        W15884  15.125   3.708   9.867
 8483W        W15885   2.643   9.949   1.997
 8484W        W15886   7.675   3.004   8.502
 8485W        W15887   4.635   9.869   8.880
 8486W        W15888  12.342   2.601   9.283
 8487W        W15889  15.011   2.471   9.187
 8488W        W15890  14.033   1.399   1.572
 8489W        W15891  13.930   7.017   2.015
 8490W        W15892   7.624   8.708   9.226
 8491W        W15893  15.117   1.130   8.691
 8492W        W15894  14.192   9.255   7.676
 8493W        W15895   2.532   4.600   9.871
 8494W        W15896   8.443   2.242   2.019
 8495W        W15897   4.240   5.901   0.257
 8496W        W15898  17.874   5.460   8.886
 8497W        W15899   3.497   2.580   1.069
 8498W        W15900   5.789   2.175   0.900
 8499W        W15901   3.330   2.228   1.999
 8500W        W15902  16.403   0.861   9.239
 8501W        W15903   5.088   5.050   9.479
 8502W        W15904   8.312   6.087   1.810
 8503W        W15905  13.448   7.868   8.241
 8504W        W15906  15.915   7.603   0.204
 8505W        W15907   0.914   1.252   9.184
 8506W        W15908   0.804   2.467   7.869
 8507W        W15909  11.907   5.833   7.965
 8508W        W15910  10.713   0.898   7.613
 8509W        W15911  17.859   7.228   9.267
 8510W        W15912  12.419   7.549   8.057
 8511W        W15913   5.786   6.351   0.838
 8512W        W15914   3.504   6.054   9.808
 8513W        W15915   2.616   0.602   9.086
 8514W        W15916  15.271   1.291   1.835
 8515W        W15917  19.427   4.132   7.942
 8516W        W15918   6.201   8.320   7.733
 8517W        W15919   8.647   8.467   2.079
 8518W        W15920  10.158   9.831   0.202
 8519W        W15921  15.767   1.181   1.772
 8520W        W15922  19.357   4.641   9.665
 8521W        W15923  18.903   1.749   9.365
 8522W        W15924   7.108   7.051   8.999
 8523W        W15925   1.977   2.177   9.549
 8524W        W15926   9.963   5.505   8.370
 8525W        W15927  14.682   6.734   9.967
 8526W        W15928   4.070   2.676   1.878
 8527W        W15929   2.144   8.700   0.404
 8528W        W15930   5.167   1.179   2.071
 8529W        W15931   4.408   2.625   1.491
 8530W        W15932   2.340   3.086   9.884
 8531W        W15933   2.751   8.975   8.824
 8532W        W15934  15.124   0.630   0.696
 8533W        W15935  17.906   9.686   9.955
 8534W        W15936   2.113   9.622   8.330
 8535W        W15937   3.059   9.863   8.059
 8536W        W15938   4.362   6.836   8.670
 8537W        W15939  10.209   0.751   1.340
 8538W        W15940   4.445   3.532   9.200
 8539W        W15941   8.071   5.827   1.446
 8540W        W15942   9.852   9.762   8.870
 8541W        W15943   4.354   0.813   0.578
 8542W        W15944   6.426   9.421   1.090
 8543W        W15945  19.654   0.681   7.871
 8544W        W15946  15.384   9.444   1.728
 8545W        W15947   5.298   9.903   7.430
 8546W        W15948  11.909   6.530   2.030
 8547W        W15949   3.225   3.576   1.882
 8548W        W15950  19.437   2.273   2.425
 8549W        W15951  11.641   7.443   8.432
 8550W        W15952  11.269   1.909   0.334
 8551W        W15953   1.123   3.488   9.784
 8552W        W15954   0.237   3.600   1.255
 8553W        W15955   5.598   0.319   1.752
 8554W        W15956  19.121   7.727   8.729
 8555W        W15957   1.819   4.027   9.826
 8556W        W15958   0.638   6.510   7.954
 8557W        W15959   4.380   2.630   0.576
 8558W        W15960  17.184   0.880   0.682
 8559W        W15961   9.025   8.378   1.727
 8560W        W15962   9.919   5.657   9.297
 8561W        W15963  16.500   4.200   0.215
 8562W        W15964  11.032   9.712   8.248
 8563W        W15965   4.216   9.414   7.860
 8564W        W15966  11.649   5.610   1.072
 8565W        W15967   2.801   1.364   9.593
 8566W        W15968   4.643   4.120   0.845
 8567W        W15969  19.244   6.015   9.826
 8568W        W15970  19.446   9.210   1.933
 8569W        W15971  19.926   7.970   8.510
 8570W        W15972   0.994   6.226   2.073
 8571W        W15973  19.847   9.877   8.824
 8572W        W15974  17.182   4.799   9.909
 8573W        W15975  10.164   0.027   2.095
 8574W        W15976  13.102   5.606   8.085
 8575W        W15977  18.191   9.428   2.444
 8576W        W15978  16.890   5.863   1.680
 8577W        W15979   1.120   4.414   8.505
 8578W        W15980  16.637   5.652   2.083
 8579W        W15981  10.724   4.792   1.037
 8580W        W15982  13.806   8.927   9.923
 8581W        W15983   2.346   5.067   9.066
 8582W        W15984   6.096   6.789   0.883
 8583W        W15985   5.866   9.897   1.634
 8584W        W15986   8.430   4.099   9.619
 8585W        W15987   9.790   1.164   8.733
 8586W        W15988   7.379   7.814   1.210
 8587W        W15989  14.573   9.357   0.301
 8588W        W15990   3.282   9.843   1.459
 8589W        W15991   4.701   8.629   1.941
 8590W        W15992   1.167   5.853   8.485
 8591W        W15993   4.278   9.523   0.740
 8592W        W15994   5.763   9.223   2.778
 8593W        W15995  13.681   2.674   9.305
 8594W        W15996  10.580   3.128   0.689
 8595W        W15997   2.397   9.503   1.908
 8596W        W15998  14.274   3.162   8.145
 8597W        W15999   7.762   1.076   0.263
 8598W        W16000   8.604   0.147   9.736
 8599W        W16001   7.539   1.132   1.177
 8600W        W16002   5.808   1.446   7.451
 8601W        W16003  12.011   0.808   1.835
 8602W        W16004   4.664   9.494   8.105
 8603W        W16005  16.215   5.598   9.700
 8604W        W16006   6.109   3.673   1.130
 8605W        W16007  17.681   9.559   2.327
 8606W        W16008  19.405   1.034   1.600
 8607W        W16009   9.972   5.998   8.891
 8608W        W16010  10.859   2.608   1.458
 8609W        W16011  10.930   3.030   1.035
 8610W        W16012  18.951   2.228   9.642
 8611W        W16013  16.597   7.881   9.669
 8612W        W16014   1.387   8.311   1.371
 8613W        W16015   6.794   6.990   1.401
 8614W        W16016  12.411   8.618   0.549
 8615W        W16017   1.583   3.925   9.373
 8616W        W16018  18.611   3.602   0.855
 8617W        W16019  14.470   3.635   8.243
 8618W        W16020   2.639   6.357   8.075
 8619W        W16021   5.404   5.937   1.767
 8620W        W16022   7.054   5.733   2.218
 8621W        W16023  17.829   1.518   8.413
 8622W        W16024   7.525   1.266   1.663
 8623W        W16025   5.318   2.153   1.134
 8624W        W16026   0.980   6.191   0.342
 8625W        W16027   8.637   0.031   8.009
 8626W        W16028   7.251   0.322   0.103
 8627W        W16029  16.704   7.011   1.691
 8628W        W16030   1.063   5.401   9.397
 8629W        W16031  14.364   8.928   9.120
 8630W        W16032  17.060   4.680   9.395
 8631W        W16033  12.430   8.461   1.047
 8632W        W16034  14.327   6.406   0.873
 8633W        W16035  11.187   3.082   8.101
 8634W        W16036   3.780   6.505   9.810
 8635W        W16037  17.632   1.957   8.248
 8636W        W16038   4.625   0.171   1.394
 8637W        W16039  19.542   2.922   7.675
 8638W        W16040   5.630   3.536   7.936
 8639W        W16041   4.545   5.482   0.285
 8640W        W16042   8.688   5.894   2.110
 8641W        W16043   0.169   4.534   8.253
 8642W        W16044   7.980   7.021   7.924
 8643W        W16045   1.739   3.682   2.209
 8644W        W16046  17.267   7.741   8.852
 8645W        W16047  17.926   1.667   9.784
 8646W        W16048  14.688   0.580   1.466
 8647W        W16049  19.062   7.944   8.240
 8648W        W16050  10.661   3.096   0.198
 8649W        W16051  15.898   6.441   0.879
 8650W        W16052   0.205   2.256   9.684
 8651W        W16053   3.832   3.213   1.386
 8652W        W16054   9.324   8.063   8.403
 8653W        W16055  12.156   1.254   9.081
 8654W        W16056  11.534   1.534   2.346
 8655W        W16057  12.083   1.217   9.581
 8656W        W16058  15.737   2.865   0.600
 8657W        W16059   7.090   4.285   2.508
 8658W        W16060   7.916   2.186   7.896
 8659W        W16061  18.635   9.516   7.648
 8660W        W16062  11.842   6.433   9.687
 8661W        W16063   7.303   9.972   2.604
 8662W        W16064  16.672   4.878   8.851
 8663W        W16065   1.698   1.333   7.925
 8664W        W16066   4.035   6.334   9.372
 8665W        W16067   3.373   6.380   8.517
 8666W        W16068   9.337   7.374   9.908
 8667W        W16069   8.610   1.126   0.159
 8668W        W16070   7.042   3.972   0.716
 8669W        W16071   2.704   4.885   0.263
 8670W        W16072   5.113   6.387   8.774
 8671W        W16073  16.345   6.524   9.461
 8672W        W16074  12.986   4.121   7.762
 8673W        W16075  18.359   4.629   8.047
 8674W        W16076  18.396   7.821   1.583
 8675W        W16077  11.811   6.878   0.284
 8676W        W16078  19.612   7.857   1.975
 8677W        W16079   3.682   5.283   7.921
 8678W        W16080  14.350   8.903   9.780
 8679W        W16081  19.133   2.672   0.316
 8680W        W16082  10.957   0.259   0.602
 8681W        W16083   9.079   6.919   0.740
 8682W        W16084  13.825   2.460   0.718
 8683W        W16085   5.971   6.427   8.212
 8684W        W16086   2.480   5.805   1.473
 8685W        W16087  12.007   0.774   1.333
 8686W        W16088  15.363   3.201   9.273
 8687W        W16089   4.657   9.152   2.624
 8688W        W16090   3.746   9.986   8.226
 8689W        W16091  14.885   9.668   8.003
 8690W        W16092  10.564   4.389   0.744
 8691W        W16093  19.062   3.178   9.394
 8692W        W16094  16.818   1.665   1.231
 8693W        W16095  11.776   1.174   0.533
 8694W        W16096   7.462   6.488   2.486
 8695W        W16097  19.424   3.094   0.307
 8696W        W16098  12.069   6.956   1.333
 8697W        W16099   8.790   0.745   8.501
 8698W        W16100  17.034   6.936   8.414
 8699W        W16101   8.059   2.751   8.775
 8700W        W16102  12.739   0.274   9.543
 8701W        W16103   0.645   6.083   1.698
 8702W        W16104  14.148   5.314   0.169
 8703W        W16105  13.961   8.893   9.430
 8704W        W16106  12.306   6.910   0.877
 8705W        W16107  18.845   3.533   9.839
 8706W        W16108  15.059   7.459   9.657
 8707W        W16109  16.819   0.832   7.600
 8708W        W16110   0.306   3.811   9.739
 8709W        W16111  10.126   9.302   9.267
 8710W        W16112  13.820   6.473   0.906
 8711W        W16113  13.046   9.436   9.556
 8712W        W16114   6.617   3.468   8.767
 8713W        W16115   1.130   6.205   1.351
 8714W        W16116   1.150   0.417   9.814
 8715W        W16117   6.660   4.569   2.612
 8716W        W16118   5.100   6.434   8.245
 8717W        W16119   4.522   6.498   2.071
 8718W        W16120   7.455   1.666   8.473
 8719W        W16121  12.357   5.746   1.845
 8720W        W16122  10.630   9.149   7.874
 8721W        W16123  12.571   2.170   1.525
 8722W        W16124   3.719   5.884   0.241
 8723W        W16125  18.235   6.683   0.914
 8724W        W16126   7.049   8.959   0.466
 8725W        W16127  13.676   8.478   8.170
 8726W        W16128   7.469   9.434   8.367
 8727W        W16129   4.288   7.325   0.760
 8728W        W16130   4.691   2.865   7.845
 8729W        W16131   9.143   0.384   2.262
 8730W        W16132  16.505   2.364   1.970
 8731W        W16133  11.147   3.920   8.335
 8732W        W16134  11.372   3.041   0.789
 8733W        W16135  12.950   6.649   1.414
 8734W        W16136  17.015   7.416   7.703
 8735W        W16137  12.849   8.229   1.270
 8736W        W16138   5.101   3.703   2.002
 8737W        W16139  13.539   9.298   7.725
 8738W        W16140   8.133   3.454   1.542
 8739W        W16141  14.091   7.109   8.771
 8740W        W16142  16.994   1.122   8.899
 8741W        W16143  12.702   9.523   8.334
 8742W        W16144  19.836   2.255   0.265
 8743W        W16145  16.093   2.525   1.729
 8744W        W16146   6.795   7.521   0.048
 8745W        W16147   9.584   8.445   9.335
 8746W        W16148   5.447   4.723   8.543
 8747W        W16149  17.475   0.787   1.144
 8748W        W16150  14.741   1.963   2.178
 8749W        W16151   6.119   2.111   8.458
 8750W        W16152   7.999   0.350   2.376
 8751W        W16153  14.654   5.995   9.392
 8752W        W16154   3.006   5.902   8.751
 8753W        W16155   4.093   4.616   9.806
 8754W        W16156  14.768   2.454   2.294
 8755W        W16157   2.026   4.420   8.544
 8756W        W16158   7.031   9.544   2.520
 8757W        W16159   5.322   1.097   0.639
 8758W        W16160   6.481   8.057   1.705
 8759W        W16161  18.851   4.627   7.835
 8760W        W16162  10.413   1.982   9.178
 8761W        W16163  14.575   5.714   7.649
 8762W        W16164   2.928   6.460   9.453
 8763W        W16165   6.424   3.311   0.884
 8764W        W16166   8.373   4.497   0.322
 8765W        W16167   2.797   9.531   0.605
 8766W        W16168  14.916   1.245   1.428
 8767W        W16169   8.071   2.112   9.361
 8768W        W16170   8.007   4.941   9.799
 8769W        W16171  15.133   3.933   1.627
 8770W        W16172   4.946   0.677   2.227
 8771W        W16173   0.172   8.340   8.732
 8772W        W16174  16.579   9.042   9.671
 8773W        W16175   6.698   3.087   2.315
 8774W        W16176  14.356   2.651   1.310
 8775W        W16177  15.633   0.327   8.270
 8776W        W16178  18.998   8.675   9.606
 8777W        W16179   9.639   3.457   9.211
 8778W        W16180  17.064   9.916   0.972
 8779W        W16181  15.232   0.027   8.131
 8780W        W16182   6.375   0.735   9.874
 8781W        W16183   9.352   8.318   8.868
 8782W        W16184  17.505   7.665   7.985
 8783W        W16185   0.502   3.116   1.237
 8784W        W16186   5.589   4.213   9.289
 8785W        W16187   1.607   6.779   9.862
 8786W        W16188   9.242   3.184   8.438
 8787W        W16189  15.424   1.307   7.323
 8788W        W16190  16.337   9.790   1.523
 8789W        W16191  12.139   7.703   9.812
 8790W        W16192  18.456   8.090   8.083
 8791W        W16193   5.460   9.336   0.220
 8792W        W16194   0.757   7.525   8.971
 8793W        W16195   5.421   6.907   7.622
 8794W        W16196  16.846   1.676   0.159
 8795W        W16197   8.146   9.859   0.438
 8796W        W16198   7.532   4.999   9.919
 8797W        W16199  16.285   6.549   9.964
 8798W        W16200   2.825   4.177   9.815
 8799W        W16201   1.175   5.426   1.411
 8800W        W16202  10.284   7.893   1.583
 8801W        W16203   3.251   2.608   8.582
 8802W        W16204   1.383   6.379   1.752
 8803W        W16205  17.026   8.134   9.492
 8804W        W16206  14.759   9.346   1.007
 8805W        W16207   5.035   0.282   1.053
 8806W        W16208  17.944   1.405   0.636
 8807W        W16209   3.749   6.551   2.412
 8808W        W16210   5.554   5.226   8.076
 8809W        W16211   3.709   8.908   1.880
 8810W        W16212   8.538   3.623   9.803
 8811W        W16213   3.263   4.901   0.177
 8812W        W16214   9.816   2.905   9.880
 8813W        W16215  14.308   9.792   0.257
 8814W        W16216   0.810   9.615   8.902
 8815W        W16217   2.386   2.221   0.743
 8816W        W16218   2.003   4.513   9.970
 8817W        W16219   2.818   5.117   1.599
 8818W        W16220  13.457   7.468   1.559
 8819W        W16221   8.196   9.807   1.222
 8820W        W16222  17.940   0.219   0.684
 8821W        W16223   6.055   0.217   9.092
 8822W        W16224   8.057   8.805   8.970
 8823W        W16225   3.489   6.492   0.266
 8824W        W16226  18.846   0.327   9.250
 8825W        W16227   6.731   7.802   8.221
 8826W        W16228  12.432   7.406   0.835
 8827W        W16229  12.605   7.767   0.531
 8828W        W16230  15.261   9.506   2.204
 8829W        W16231   1.922   3.030   9.581
 8830W        W16232  16.849   0.215   2.225
 8831W        W16233   0.689   7.271   0.860
 8832W        W16234  12.926   0.940   1.832
 8833W        W16235   6.524   5.223   1.743
 8834W        W16236   7.529   7.756   7.656
 8835W        W16237  15.412   2.280   8.931
 8836W        W16238   4.421   4.486   0.542
 8837W        W16239  19.655   7.492   9.216
 8838W        W16240   6.684   1.563   0.331
 8839W        W16241  19.407   9.651   8.700
 8840W        W16242   5.798   1.702   1.086
 8841W        W16243   9.492   6.894   9.841
 8842W        W16244   6.707   9.057   7.858
 8843W        W16245  13.860   8.526   0.229
 8844W        W16246  14.954   2.264   9.868
 8845W        W16247  11.142   6.470   8.108
 8846W        W16248  14.591   4.593   1.324
 8847W        W16249  19.176   8.782   1.892
 8848W        W16250   1.660   5.618   8.157
 8849W        W16251  10.608   0.150   1.882
 8850W        W16252   9.352   2.687   1.163
 8851W        W16253   9.926   2.397   9.990
 8852W        W16254   8.810   5.345   1.118
 8853W        W16255   8.332   2.490   9.139
 8854W        W16256  14.310   0.564   9.333
 8855W        W16257   7.930   0.838   8.739
 8856W        W16258  18.202   0.656   7.851
 8857W        W16259  17.860   9.321   1.458
 8858W        W16260  12.850   9.317   0.038
 8859W        W16261   9.779   9.694   2.190
 8860W        W16262   1.828   0.011   1.271
 8861W        W16263  14.559   3.201   9.012
 8862W        W16264   8.416   7.293   8.928
 8863W        W16265  16.774   5.538   0.254
 8864W        W16266  18.457   5.011   2.468
 8865W        W16267   7.455   4.148   9.992
 8866W        W16268  15.223   3.550   1.945
 8867W        W16269  13.723   7.871   1.768
 8868W        W16270  18.040   2.147   8.820
 8869W        W16271  14.158   2.720   7.930
 8870W        W16272  10.834   4.799   8.982
 8871W        W16273   3.075   0.178   1.789
 8872W        W16274  18.010   2.547   9.178
 8873W        W16275  18.441   3.999   1.175
 8874W        W16276   2.546   9.855   9.266
 8875W        W16277   7.033   4.413   7.876
 8876W        W16278  16.578   4.120   8.946
 8877W        W16279   5.993   7.190   9.597
 8878W        W16280  10.156   4.116   0.955
 8879W        W16281   9.401   8.386   0.453
 8880W        W16282   0.371   6.088   8.266
 8881W        W16283   9.799   4.499   1.095
 8882W        W16284   0.153   4.739   8.714
 8883W        W16285  13.412   7.419   7.991
 8884W        W16286  19.695   5.373   2.121
 8885W        W16287   6.725   8.572   2.423
 8886W        W16288  19.950   7.883   9.485
 8887W        W16289   5.869   7.176   1.716
 8888W        W16290   8.486   2.223   2.541
 8889W        W16291   1.243   9.733   0.570
 8890W        W16292   5.758   4.433   9.731
 8891W        W16293   3.109   3.927   0.160
 8892W        W16294   1.143   0.109   0.220
 8893W        W16295   0.251   8.818   0.291
 8894W        W16296   4.694   6.486   7.918
 8895W        W16297  10.418   8.389   2.309
 8896W        W16298  19.761   2.499   8.587
 8897W        W16299  15.872   9.671   2.171
 8898W        W16300   5.611   8.780   8.292
 8899W        W16301  18.720   5.391   2.234
 8900W        W16302  13.987   1.958   0.336
 8901W        W16303  12.409   1.671   0.189
 8902W        W16304  11.606   2.918   1.772
 8903W        W16305   2.126   5.246   0.719
 8904W        W16306   2.472   5.380   9.455
 8905W        W16307   8.954   6.433   1.939
 8906W        W16308   0.238   3.070   1.726
 8907W        W16309   2.608   3.222   8.994
 8908W        W16310  19.542   1.489   1.392
 8909W        W16311   8.908   8.347   0.195
 8910W        W16312   6.178   1.222   1.738
 8911W        W16313   7.396   7.364   2.168
 8912W        W16314   7.070   4.085   9.599
 8913W        W16315   4.626   7.871   2.195
 8914W        W16316   8.958   2.753   8.414
 8915W        W16317   7.041   0.830   0.544
 8916W        W16318  17.865   6.549   1.840
 8917W        W16319   1.426   9.217   8.545
 8918W        W16320   2.113   0.365   9.946
 8919W        W16321  15.788   7.878   9.169
 8920W        W16322   5.568   1.289   9.841
 8921W        W16323   0.726   7.444   9.485
 8922W        W16324   0.706   8.348   9.492
 8923W        W16325   4.096   7.720   8.337
 8924W        W16326   8.522   9.107   8.420
 8925W        W16327  11.527   2.093   1.230
 8926W        W16328   0.178   8.295   9.257
 8927W        W16329  18.098   4.185   7.940
 8928W        W16330  12.492   2.377   0.548
 8929W        W16331  16.004   3.646   9.411
 8930W        W16332  18.386   1.950   7.844
 8931W        W16333   7.618   7.721   2.459
 8932W        W16334  19.069   9.173   0.539
 8933W        W16335  12.479   9.327   1.346
 8934W        W16336  15.522   9.805   8.930
 8935W        W16337  13.966   3.566   8.203
 8936W        W16338  13.800   0.953   2.266
 8937W        W16339  10.482   3.534   9.628
 8938W        W16340  11.798   6.987   1.772
 8939W        W16341  10.299   9.772   9.700
 8940W        W16342   4.410   9.268   2.117
 8941W        W16343   5.885   0.873   9.739
 8942W        W16344  11.954   3.997   8.285
 8943W        W16345   2.631   4.889   2.465
 8944W        W16346  16.005   2.759   9.350
 8945W        W16347   2.260   1.367   8.505
 8946W        W16348  17.278   4.726   1.636
 8947W        W16349   3.102   2.616   9.834
 8948W        W16350  14.545   2.194   1.122
 8949W        W16351  13.546   6.282   0.230
 8950W        W16352  19.264   9.714   0.658
 8951W        W16353  15.731   0.944   2.562
 8952W        W16354   4.257   2.192   1.740
 8953W        W16355  12.147   5.121   9.267
 8954W        W16356   1.160   5.886   7.610
 8955W        W16357   8.448   2.188   0.117
 8956W        W16358   4.243   4.276   2.198
 8957W        W16359  13.909   7.351   1.262
 8958W        W16360  18.350   5.516   2.570
 8959W        W16361  18.869   8.892   0.965
 8960W        W16362   2.883   9.961   8.873
 8961W        W16363  12.724   1.267   0.564
 8962W        W16364   5.042   3.187   0.977
 8963W        W16365   5.600   8.369   7.983
 8964W        W16366   9.111   8.791   0.321
 8965W        W16367   9.294   6.498   8.491
 8966W        W16368  13.742   7.573   9.311
 8967W        W16369   0.283   6.132   1.284
 8968W        W16370   3.535   9.651   2.234
 8969W        W16371   4.223   6.436   0.713
 8970W        W16372   2.701   5.593   0.697
 8971W        W16373   0.826   3.230   1.621
 8972W        W16374   2.620   0.676   0.601
 8973W        W16375  18.233   5.473   8.069
 8974W        W16376   6.149   5.470   0.574
 8975W        W16377   5.813   7.538   9.913
 8976W        W16378   6.788   8.958   8.743
 8977W        W16379   2.201   3.742   2.392
 8978W        W16380   7.804   2.404   0.293
 8979W        W16381  13.507   5.395   7.794
 8980W        W16382   2.239   9.499   0.048
 8981W        W16383  18.545   9.042   8.452
 8982W        W16384   3.668   7.170   7.367
 8983W        W16385   6.206   9.430   0.630
 8984W        W16386  13.930   5.293   9.197
 8985W        W16387   6.583   4.995   2.231
 8986W        W16388   5.132   1.655   7.882
 8987W        W16389   6.249   5.964   8.904
 8988W        W16390   0.580   9.379   0.793
 8989W        W16391  13.038   9.154   0.874
 8990W        W16392   8.364   9.127   9.283
 8991W        W16393  19.173   2.269   1.998
 8992W        W16394   8.805   9.704   9.949
 8993W        W16395   1.909   1.664   1.225
 8994W        W16396   0.290   0.676   1.779
 8995W        W16397  17.142   4.268   1.392
 8996W        W16398  13.529   8.061   9.343
 8997W        W16399  15.524   4.126   9.035
 8998W        W16400   2.959   4.849   1.142
 8999W        W16401   7.116   2.655   7.749
 9000W        W16402  19.592   6.960   7.833
 9001W        W16403   1.663   5.489   1.273
 9002W        W16404  12.397   4.570   8.294
 9003W        W16405  15.377   4.125   1.206
 9004W        W16406   1.033   2.360   9.075
 9005W        W16407   2.540   8.001   1.463
 9006W        W16408   5.016   6.583   2.197
 9007W        W16409  10.275   3.230   1.636
 9008W        W16410  15.885   5.185   0.389
 9009W        W16411   6.302   4.525   1.666
 9010W        W16412  19.051   7.045   0.832
 9011W        W16413   9.384   9.395   8.208
 9012W        W16414   0.854   7.903   9.695
 9013W        W16415   2.714   7.587   0.686
 9014W        W16416   8.137   7.769   2.482
 9015W        W16417   7.358   5.121   2.363
 9016W        W16418  18.993   3.046   2.582
 9017W        W16419   5.063   6.875   7.998
 9018W        W16420  13.886   9.619   7.940
 9019W        W16421  15.161   8.469   8.240
 9020W        W16422  13.818   9.736   1.972
 9021W        W16423   3.838   9.232   2.259
 9022W        W16424  16.616   1.566   1.694
 9023W        W16425   8.755   0.636   0.954
 9024W        W16426  12.533   2.649   0.096
 9025W        W16427   6.665   4.996   8.942
 9026W        W16428   1.762   7.801   7.665
 9027W        W16429  11.458   0.632   8.540
 9028W        W16430  17.713   2.413   7.539
 9029W        W16431  16.819   9.186   8.274
 9030W        W16432  13.443   7.436   1.035
 9031W        W16433   2.203   1.327   8.006
 9032W        W16434  18.997   5.987   8.460
 9033W        W16435  16.216   6.340   1.293
 9034W        W16436  11.645   7.607   1.928
 9035W        W16437  10.813   3.707   2.621
 9036W        W16438   9.925   2.357   8.602
 9037W        W16439  18.003   7.648   1.326
 9038W        W16440  11.798   3.494   8.961
 9039W        W16441   0.423   3.547   1.731
 9040W        W16442  13.190   5.739   7.612
 9041W        W16443  18.748   1.627   8.888
 9042W        W16444   1.713   7.777   8.544
 9043W        W16445  17.678   4.662   9.895
 9044W        W16446  17.705   5.936   8.888
 9045W        W16447   7.935   5.753   1.967
 9046W        W16448   3.841   9.551   0.399
 9047W        W16449  11.460   1.560   0.715
 9048W        W16450  13.468   7.424   8.885
 9049W        W16451  16.357   4.469   9.783
 9050W        W16452  11.140   3.929   1.114
 9051W        W16453   0.430   9.317   0.294
 9052W        W16454  18.795   0.781   8.984
 9053W        W16455  18.670   2.516   1.278
 9054W        W16456  11.887   3.493   8.444
 9055W        W16457  17.741   3.432   8.360
 9056W        W16458   7.695   4.148   1.380
 9057W        W16459   5.406   0.801   8.912
 9058W        W16460  10.205   5.220   9.377
 9059W        W16461  18.472   8.251   8.908
 9060W        W16462   2.186   1.117   2.397
 9061W        W16463   1.284   9.457   8.130
 9062W        W16464   1.457   7.392   0.616
 9063W        W16465   2.336   1.867   2.842
 9064W        W16466   1.842   3.066   0.073
 9065W        W16467  11.033   6.018   0.725
 9066W        W16468   9.099   0.373   8.710
 9067W        W16469  13.514   3.624   9.164
 9068W        W16470  13.145   6.073   0.689
 9069W        W16471  10.352   2.911   2.556
 9070W        W16472  10.049   3.246   8.971
 9071W        W16473   5.926   9.908   0.736
 9072W        W16474   9.068   5.820   7.565
 9073W        W16475  17.961   7.086   2.612
 9074W        W16476   1.432   7.801   8.078
 9075W        W16477  17.995   5.171   7.625
 9076W        W16478   6.986   9.361   0.167
 9077W        W16479  16.919   9.899   7.859
 9078W        W16480   6.197   0.889   0.857
 9079W        W16481  17.066   2.652   1.358
 9080W        W16482  16.803   8.296   8.594
 9081W        W16483  16.871   4.896   8.117
 9082W        W16484  11.356   7.304   7.984
 9083W        W16485  13.104   5.247   8.914
 9084W        W16486  10.146   3.680   9.213
 9085W        W16487  11.500   4.288   8.458
 9086W        W16488   0.865   2.944   7.726
 9087W        W16489   7.488   6.409   0.043
 9088W        W16490  16.017   9.849   1.129
 9089W        W16491   9.734   6.036   0.169
 9090W        W16492  18.213   9.420   0.660
 9091W        W16493   4.701   1.759   9.706
 9092W        W16494   3.522   3.742   8.869
 9093W        W16495  17.480   0.451   0.738
 9094W        W16496  15.459   5.124   8.627
 9095W        W16497  19.430   8.125   8.613
 9096W        W16498   4.805   3.426   8.568
 9097W        W16499  11.293   6.451   8.787
 9098W        W16500   7.717   4.499   9.087
 9099W        W16501  16.507   1.385   2.223
 9100W        W16502  19.802   9.384   8.939
 9101W        W16503   1.527   5.508   8.629
 9102W        W16504   8.260   7.051   0.465
 9103W        W16505  12.222   5.337   8.793
 9104W        W16506   6.207   8.648   2.393
 9105W        W16507  11.126   5.100   1.772
 9106W        W16508   3.867   2.209   2.104
 9107W        W16509   0.004   6.004   9.447
 9108W        W16510   5.225   6.060   1.276
 9109W        W16511  12.337   6.427   0.651
 9110W        W16512  17.626   6.977   1.611
 9111W        W16513   0.251   1.747   9.673
 9112W        W16514  15.166   0.550   9.813
 9113W        W16515   1.855   1.710   8.245
 9114W        W16516  16.456   1.326   8.983
 9115W        W16517   2.461   0.754   0.105
 9116W        W16518   5.914   2.311   9.466
 9117W        W16519   3.107   0.426   8.874
 9118W        W16520   9.435   0.223   9.974
 9119W        W16521  10.322   4.627   8.882
 9120W        W16522   2.276   2.215   8.979
 9121W        W16523   5.250   8.906   0.926
 9122W        W16524   4.541   2.984   8.376
 9123W        W16525   5.053   5.503   1.169
 9124W        W16526   0.713   7.856   7.681
 9125W        W16527   3.890   8.605   2.273
 9126W        W16528   7.257   9.390   0.726
 9127W        W16529  16.942   6.085   9.219
 9128W        W16530   1.969   9.097   9.348
 9129W        W16531  13.291   8.289   8.485
 9130W        W16532   5.159   6.854   9.022
 9131W        W16533   0.404   2.818   7.963
 9132W        W16534  15.376   5.827   7.889
 9133W        W16535  15.173   6.271   8.033
 9134W        W16536   5.213   3.062   7.935
 9135W        W16537  17.333   3.513   8.906
 9136W        W16538   2.232   2.990   0.393
 9137W        W16539  12.165   9.131   9.397
 9138W        W16540   2.860   1.715   8.339
 9139W        W16541   8.643   3.605   0.787
 9140W        W16542   8.461   8.216   9.465
 9141W        W16543  11.894   7.353   8.897
 9142W        W16544   4.460   0.281   7.741
 9143W        W16545   4.175   9.399   1.668
 9144W        W16546   9.761   9.193   7.930
 9145W        W16547   6.226   3.658   9.597
 9146W        W16548   1.354   4.024   0.613
 9147W        W16549   3.992   1.662   0.217
 9148W        W16550  17.289   1.867   1.483
 9149W        W16551  12.385   7.024   8.239
 9150W        W16552   4.289   0.245   2.074
 9151W        W16553  18.768   1.792   0.391
 9152W        W16554   3.754   6.534   8.112
 9153W        W16555  14.921   0.112   7.722
 9154W        W16556   1.049   1.518   7.679
 9155W        W16557   1.909   4.430   0.490
 9156W        W16558  15.384   9.529   8.131
 9157W        W16559  17.326   1.672   8.530
 9158W        W16560   2.222   7.000   2.078
 9159W        W16561   0.607   0.852   9.312
 9160W        W16562   6.772   5.713   9.348
 9161W        W16563  11.377   5.823   7.403
 9162W        W16564   2.388   6.581   1.785
 9163W        W16565  11.493   1.596   1.827
 9164W        W16566  16.179   4.565   1.230
 9165W        W16567   9.213   1.745   9.564
 9166W        W16568   7.250   3.937   2.171
 9167W        W16569   1.319   7.903   0.627
 9168W        W16570   8.668   4.888   8.090
 9169W        W16571   5.214   0.264   2.075
 9170W        W16572  10.176   0.696   8.027
 9171W        W16573  18.881   1.057   7.718
 9172W        W16574  17.266   7.879   1.714
 9173W        W16575  13.134   3.845   1.846
 9174W        W16576  11.993   0.782   9.274
 9175W        W16577   0.674   1.856   1.752
 9176W        W16578   6.980   8.139   1.751
 9177W        W16579   8.356   6.377   8.898
 9178W        W16580  12.778   8.225   8.428
 9179W        W16581   4.178   1.827   9.747
 9180W        W16582   2.783   5.799   0.217
 9181W        W16583  13.847   7.269   0.715
 9182W        W16584  19.412   4.894   0.934
 9183W        W16585  18.612   0.223   0.325
 9184W        W16586  16.375   0.535   7.467
 9185W        W16587   2.729   3.235   8.459
 9186W        W16588   0.714   8.993   1.130
 9187W        W16589   9.875   1.114   9.778
 9188W        W16590  17.999   1.140   7.860
 9189W        W16591   5.750   5.896   2.151
 9190W        W16592   5.092   4.120   9.317
 9191W        W16593  19.640   9.887   7.788
 9192W        W16594  15.503   4.322   0.258
 9193W        W16595  15.245   8.907   0.183
 9194W        W16596  13.555   6.676   7.715
 9195W        W16597   1.257   7.751   7.599
 9196W        W16598  19.445   3.266   2.388
 9197W        W16599   7.687   0.007   2.152
 9198W        W16600   0.710   8.381   1.792
 9199W        W16601  14.046   0.570   7.904
 9200W        W16602  16.713   4.897   1.589
 9201W        W16603  12.543   3.209   8.415
 9202W        W16604  14.403   9.653   0.743
 9203W        W16605  17.434   6.336   0.946
 9204W        W16606  19.765   5.181   0.696
 9205W        W16607  17.249   8.923   8.095
 9206W        W16608  18.298   3.436   9.039
 9207W        W16609  15.143   4.435   2.153
 9208W        W16610  14.202   1.742   1.952
 9209W        W16611  13.848   5.222   8.698
 9210W        W16612  17.287   9.548   9.659
 9211W        W16613   8.367   0.908   0.553
 9212W        W16614  14.445   6.522   8.713
 9213W        W16615   4.992   9.139   0.168
 9214W        W16616   0.151   5.262   2.327
 9215W        W16617   8.475   4.933   0.553
 9216W        W16618   3.780   4.202   8.905
 9217W        W16619  16.745   8.717   2.352
 9218W        W16620  15.917   4.385   1.671
 9219W        W16621  17.983   3.179   7.961
 9220W        W16622  13.357   4.320   1.748
 9221W        W16623   6.443   5.822   8.400
 9222W        W16624  19.312   3.752   9.750
 9223W        W16625   4.845   4.636   0.867
 9224W        W16626   7.783   0.849   2.420
 9225W        W16627   8.441   0.272   1.192
 9226W        W16628  13.209   2.787   1.212
 9227W        W16629   6.538   4.439   7.725
 9228W        W16630  16.561   4.683   2.150
 9229W        W16631   8.679   9.990   2.136
 9230W        W16632   3.017   7.960   1.635
 9231W        W16633  17.629   3.418   1.167
 9232W        W16634   3.134   9.692   1.942
 9233W        W16635  17.828   2.082   2.009
 9234W        W16636  10.651   0.525   9.538
 9235W        W16637  11.250   9.773   8.726
 9236W        W16638   1.661   7.449   9.113
 9237W        W16639   2.530   9.985   2.510
 9238W        W16640  18.846   7.839   1.341
 9239W        W16641  19.007   9.341   7.995
 9240W        W16642  14.753   1.720   1.236
 9241W        W16643   0.620   5.022   1.645
 9242W        W16644   8.393   6.843   8.668
 9243W        W16645  10.166   3.158   8.001
 9244W        W16646  18.933   1.209   8.201
 9245W        W16647   7.132   9.387   7.855
 9246W        W16648  18.430   3.152   0.230
 9247W        W16649   5.328   7.906   1.317
 9248W        W16650   6.715   1.075   9.131
 9249W        W16651  15.825   2.094   9.554
 9250W        W16652   5.151   8.478   8.939
 9251W        W16653   2.472   4.891   1.264
 9252W        W16654   8.582   9.946   9.174
 9253W        W16655   9.129   5.474   0.749
 9254W        W16656  19.469   0.200   0.743
 9255W        W16657   4.263   8.547   8.525
 9256W        W16658  15.759   5.306   1.630
 9257W        W16659  15.422   0.845   7.512
 9258W        W16660  16.148   4.839   0.776
 9259W        W16661   7.750   3.045   0.881
 9260W        W16662  14.246   5.240   1.888
 9261W        W16663  10.615   7.078   7.663
 9262W        W16664   2.027   6.061   8.836
 9263W        W16665  12.254   7.789   1.808
 9264W        W16666  17.365   1.707   9.976
 9265W        W16667  12.305   8.259   2.015
 9266W        W16668  16.355   4.345   0.708
 9267W        W16669   2.529   1.789   9.447
 9268W        W16670   5.754   3.399   9.561
 9269W        W16671  14.543   4.042   0.844
 9270W        W16672   2.487   6.353   1.337
 9271W        W16673   0.817   3.972   8.549
 9272W        W16674  18.410   0.795   9.313
 9273W        W16675   0.889   0.572   1.892
 9274W        W16676   9.944   0.843   1.743
 9275W        W16677  13.048   0.147   7.498
 9276W        W16678  11.578   6.539   8.373
 9277W        W16679   1.474   0.655   7.484
 9278W        W16680  14.249   1.210   2.009
 9279W        W16681  11.843   7.461   0.192
 9280W        W16682  12.942   5.592   0.522
 9281W        W16683   5.227   8.459   1.206
 9282W        W16684  18.876   4.440   9.798
 9283W        W16685  10.976   3.541   7.984
 9284W        W16686   8.590   7.130   0.850
 9285W        W16687   1.290   3.975   8.334
 9286W        W16688   5.054   2.144   8.440
 9287W        W16689   3.564   8.186   9.748
 9288W        W16690   1.398   4.531   0.615
 9289W        W16691   8.275   6.794   1.095
 9290W        W16692   3.642   2.777   0.627
 9291W        W16693  14.179   4.140   0.515
 9292W        W16694  10.540   8.131   7.610
 9293W        W16695  17.643   8.067   7.665
 9294W        W16696   3.166   1.135   2.347
 9295W        W16697   4.913   9.843   9.678
 9296W        W16698   1.640   8.690   1.590
 9297W        W16699  14.314   1.824   2.449
 9298W        W16700   0.028   6.027   0.759
 9299W        W16701   3.740   5.133   9.023
 9300W        W16702  19.817   8.318   1.818
 9301W        W16703   5.897   9.211   8.303
 9302W        W16704  15.560   3.182   1.842
 9303W        W16705   0.320   5.952   9.858
 9304W        W16706   5.042   2.542   2.104
 9305W        W16707  12.335   2.698   8.619
 9306W        W16708  14.913   3.684   7.931
 9307W        W16709   8.911   2.401   1.294
 9308W        W16710   1.310   5.771   2.174
 9309W        W16711   2.278   3.266   7.655
 9310W        W16712   9.537   3.199   0.521
 9311W        W16713  19.273   1.810   2.289
 9312W        W16714   5.519   7.414   2.014
 9313W        W16715   8.106   4.896   8.064
 9314W        W16716   0.596   3.783   8.990
 9315W        W16717  13.661   4.486   9.839
 9316W        W16718   1.209   8.444   1.837
 9317W        W16719  16.818   7.907   0.926
 9318W        W16720   8.967   9.349   1.359
 9319W        W16721   4.455   0.345   0.415
 9320W        W16722  18.958   8.054   2.392
 9321W        W16723   0.267   0.143   1.667
 9322W        W16724  16.291   5.771   8.811
 9323W        W16725  15.315   7.072   0.624
 9324W        W16726  17.823   5.422   1.330
 9325W        W16727  15.278   7.632   7.673
 9326W        W16728  19.352   8.981   1.402
 9327W        W16729   2.941   4.415   0.287
 9328W        W16730   5.701   5.395   2.306
 9329W        W16731   1.427   4.093   1.898
 9330W        W16732   5.807   7.864   8.547
 9331W        W16733   7.074   4.947   0.146
 9332W        W16734  16.272   1.666   0.732
 9333W        W16735  16.185   6.105   9.694
 9334W        W16736  14.825   9.295   2.365
 9335W        W16737   1.810   7.327   2.129
 9336W        W16738  14.195   6.154   9.213
 9337W        W16739   9.758   3.209   8.540
 9338W        W16740   5.531   5.592   8.957
 9339W        W16741  16.646   2.022   8.464
 9340W        W16742   1.078   4.913   1.426
 9341W        W16743  19.226   5.544   9.105
 9342W        W16744  13.877   6.269   7.621
 9343W        W16745   4.119   2.144   9.337
 9344W        W16746   3.824   8.247   8.476
 9345W        W16747   8.431   1.335   1.534
 9346W        W16748  15.346   4.789   0.386
 9347W        W16749  12.407   4.021   1.259
 9348W        W16750   3.486   2.183   7.677
 9349W        W16751   3.725   2.128   0.166
 9350W        W16752   4.233   4.956   0.401
 9351W        W16753   5.553   1.021   9.379
 9352W        W16754  16.679   2.305   9.000
 9353W        W16755  13.664   6.051   0.667
 9354W        W16756   5.158   9.398   9.770
 9355W        W16757  12.628   5.546   0.113
 9356W        W16758   5.482   6.826   1.649
 9357W        W16759  11.892   9.128   9.825
 9358W        W16760  15.505   4.532   9.325
 9359W        W16761  14.390   5.953   1.109
 9360W        W16762  13.561   5.421   8.306
 9361W        W16763  15.712   9.885   0.082
 9362W        W16764   5.103   6.055   9.907
 9363W        W16765   2.729   7.973   8.575
 9364W        W16766  10.864   7.164   8.149
 9365W        W16767   5.946   1.567   0.069
 9366W        W16768  19.324   4.239   8.950
 9367W        W16769   9.884   8.868   9.360
 9368W        W16770   7.647   2.136   8.334
 9369W        W16771   7.193   3.057   8.369
 9370W        W16772   2.066   6.058   1.293
 9371W        W16773   6.725   2.019   0.032
 9372W        W16774   0.983   4.148   2.164
 9373W        W16775   9.726   7.932   7.938
 9374W        W16776   7.254   8.553   1.679
 9375W        W16777   3.302   8.148   2.260
 9376W        W16778  18.864   7.290   1.243
 9377W        W16779  16.920   2.521   9.465
 9378W        W16780   2.117   5.766   8.393
 9379W        W16781  16.561   0.881   8.743
 9380W        W16782  13.389   6.071   1.147
 9381W        W16783   1.805   2.828   1.593
 9382W        W16784   8.360   4.931   8.516
 9383W        W16785  18.948   4.921   9.585
 9384W        W16786   8.973   1.433   2.273
 9385W        W16787  19.180   3.781   8.746
 9386W        W16788   4.654   0.614   9.232
 9387W        W16789   2.518   5.541   7.634
 9388W        W16790   1.041   7.003   8.119
 9389W        W16791   8.054   8.849   8.438
 9390W        W16792  14.979   2.342   0.863
 9391W        W16793  13.243   7.249   9.330
 9392W        W16794  17.652   1.599   1.231
 9393W        W16795  13.602   2.572   9.835
 9394W        W16796  15.960   9.474   1.682
 9395W        W16797   6.043   6.601   0.401
 9396W        W16798  19.720   3.590   1.445
 9397W        W16799   4.608   7.689   8.223
 9398W        W16800   3.623   4.016   0.208
 9399W        W16801   1.733   4.837   9.345
 9400W        W16802  15.199   6.779   8.161
 9401W        W16803   0.039   9.848   9.312
 9402W        W16804  17.219   9.518   1.603
 9403W        W16805   6.184   6.836   8.914
 9404W        W16806  19.781   8.597   7.939
 9405W        W16807   2.705   4.387   1.172
 9406W        W16808   0.967   7.532   0.521
 9407W        W16809   0.964   5.312   0.288
 9408W        W16810  10.525   5.968   9.719
 9409W        W16811  11.005   0.350   1.619
 9410W        W16812   4.507   6.848   0.732
 9411W        W16813   1.889   8.862   7.882
 9412W        W16814  16.837   3.013   1.028
 9413W        W16815  14.105   0.173   2.094
 9414W        W16816   1.637   1.695   9.475
 9415W        W16817  10.396   8.288   8.912
 9416W        W16818  12.809   3.462   1.874
 9417W        W16819  12.533   3.958   8.958
 9418W        W16820   4.542   5.955   2.377
 9419W        W16821  17.788   2.554   1.835
 9420W        W16822   7.622   1.818   2.379
 9421W        W16823   7.994   8.344   9.739
 9422W        W16824  19.283   1.837   0.190
 9423W        W16825   5.338   9.440   8.925
 9424W        W16826   9.910   3.718   0.541
 9425W        W16827  12.793   3.692   8.580
 9426W        W16828  17.849   2.559   9.673
 9427W        W16829  17.320   0.430   9.404
 9428W        W16830   2.425   0.810   2.738
 9429W        W16831   7.735   9.672   7.978
 9430W        W16832  13.388   0.782   1.104
 9431W        W16833  15.812   1.130   7.629
 9432W        W16834  17.279   9.918   9.247
 9433W        W16835  14.902   1.972   9.327
 9434W        W16836  18.362   9.667   0.201
 9435W        W16837  12.800   8.629   2.219
 9436W        W16838  13.879   1.938   0.838
 9437W        W16839   7.897   3.634   8.565
 9438W        W16840  17.659   2.166   9.155
 9439W        W16841  16.866   9.684   8.370
 9440W        W16842  17.597   0.853   9.499
 9441W        W16843   6.527   3.726   1.429
 9442W        W16844  13.898   3.320   0.938
 9443W        W16845   3.022   7.267   8.979
 9444W        W16846  10.308   7.560   0.905
 9445W        W16847   1.630   0.610   8.379
 9446W        W16848   1.838   4.283   1.588
 9447W        W16849   9.457   0.243   1.057
 9448W        W16850  15.492   6.230   1.685
 9449W        W16851   1.980   5.270   9.344
 9450W        W16852   6.718   2.640   9.630
 9451W        W16853   5.143   9.298   2.424
 9452W        W16854   6.702   2.498   0.819
 9453W        W16855  11.989   0.947   2.331
 9454W        W16856   0.946   0.638   7.598
 9455W        W16857  16.768   5.913   0.599
 9456W        W16858   3.228   4.053   2.737
 9457W        W16859   2.624   2.808   2.164
 9458W        W16860   1.730   0.198   8.677
 9459W        W16861   6.099   4.202   9.364
 9460W        W16862  19.975   0.631   0.432
 9461W        W16863  16.581   2.078   7.953
 9462W        W16864   5.832   4.795   8.197
 9463W        W16865  11.632   3.829   1.159
 9464W        W16866  13.863   3.335   9.407
 9465W        W16867  15.296   8.884   8.793
 9466W        W16868  14.864   5.018   1.364
 9467W        W16869  17.161   6.108   9.693
 9468W        W16870  19.656   7.040   1.626
 9469W        W16871  14.792   0.099   1.455
 9470W        W16872   7.399   9.321   2.050
 9471W        W16873  15.776   2.462   0.286
 9472W        W16874  14.838   2.942   0.165
 9473W        W16875   7.276   1.765   8.028
 9474W        W16876  18.292   5.385   1.096
 9475W        W16877  11.049   4.406   0.915
 9476W        W16878  18.980   6.813   9.539
 9477W        W16879   6.339   0.275   8.257
 9478W        W16880   2.401   4.411   0.321
 9479W        W16881  12.564   9.572   9.682
 9480W        W16882  13.493   5.030   9.128
 9481W        W16883   6.807   4.702   9.339
 9482W        W16884   2.630   7.452   8.644
 9483W        W16885  16.690   4.417   8.522
 9484W        W16886  13.464   9.689   9.736
 9485W        W16887  15.650   1.740   1.917
 9486W        W16888  14.535   1.500   1.667
 9487W        W16889  16.007   2.081   0.032
 9488W        W16890   5.355   8.913   9.860
 9489W        W16891  11.644   1.138   2.010
 9490W        W16892   6.650   8.808   0.206
 9491W        W16893  15.638   3.544   2.220
 9492W        W16894   8.628   1.326   0.649
 9493W        W16895  12.971   0.681   7.768
 9494W        W16896   7.041   4.349   1.962
 9495W        W16897   7.167   8.409   8.200
 9496W        W16898   5.295   2.182   1.701
 9497W        W16899  16.914   3.850   1.149
 9498W        W16900  10.436   6.221   7.942
 9499W        W16901  16.016   7.482   1.799
 9500W        W16902   7.051   1.231   0.879
 9501W        W16903   6.240   7.239   8.199
 9502W        W16904   1.851   4.138   8.988
 9503W        W16905  17.181   4.693   1.107
 9504W        W16906  17.120   3.383   1.233
 9505W        W16907  16.835   3.420   8.760
 9506W        W16908   5.116   4.335   8.381
 9507W        W16909   5.701   2.552   9.063
 9508W        W16910  16.137   5.770   2.726
 9509W        W16911  18.639   9.894   8.980
 9510W        W16912  14.533   1.285   7.873
 9511W        W16913  11.076   1.698   2.107
 9512W        W16914   5.080   9.867   1.333
 9513W        W16915  11.251   1.189   1.636
 9514W        W16916  16.554   9.547   7.963
 9515W        W16917  19.213   5.533   8.587
 9516W        W16918   5.747   8.245   2.342
 9517W        W16919  15.643   5.705   7.472
 9518W        W16920  12.046   8.249   2.500
 9519W        W16921  18.477   1.121   1.537
 9520W        W16922   0.573   0.501   8.915
 9521W        W16923  12.862   0.871   9.796
 9522W        W16924  15.705   7.889   7.930
 9523W        W16925   2.306   7.920   0.624
 9524W        W16926  18.403   2.876   7.767
 9525W        W16927  17.588   2.956   9.856
 9526W        W16928   1.835   2.604   0.325
 9527W        W16929  13.384   0.790   0.575
 9528W        W16930   1.501   8.807   8.203
 9529W        W16931  11.882   0.331   1.087
 9530W        W16932  14.010   6.377   0.431
 9531W        W16933   5.024   6.792   0.751
 9532W        W16934  17.850   4.355   9.496
 9533W        W16935   5.703   9.939   2.122
 9534W        W16936  19.534   5.996   2.472
 9535W        W16937   3.788   7.799   0.495
 9536W        W16938  11.536   5.603   9.191
 9537W        W16939  12.277   7.828   2.325
 9538W        W16940  11.514   1.849   8.026
 9539W        W16941   8.679   2.600   8.804
 9540W        W16942  19.530   4.207   9.862
 9541W        W16943   8.544   0.591   0.143
 9542W        W16944  14.783   1.119   1.900
 9543W        W16945  18.764   5.345   1.279
 9544W        W16946   4.405   1.559   1.145
 9545W        W16947  13.192   0.410   0.296
 9546W        W16948  11.191   8.978   1.248
 9547W        W16949  10.925   8.382   7.921
 9548W        W16950  13.073   3.212   7.754
 9549W        W16951   8.729   5.802   0.845
 9550W        W16952  14.900   3.465   1.547
 9551W        W16953  19.365   8.199   1.141
 9552W        W16954   6.687   6.925   9.708
 9553W        W16955  16.663   2.930   9.687
 9554W        W16956  12.204   7.861   8.980
 9555W        W16957   9.841   2.308   1.455
 9556W        W16958  16.379   9.442   8.428
 9557W        W16959   0.806   7.147   2.250
 9558W        W16960   6.126   8.312   1.998
 9559W        W16961   2.584   9.576   8.094
 9560ION     NA16962  15.031   3.252   0.661
 9561ION     NA16963   8.070   3.514   0.346
 9562ION     NA16964   3.798   3.630   1.295
 9563ION     NA16965  10.586   2.753   2.215
 9564ION     NA16966  11.742   6.126   2.050
 9565ION     NA16967  18.309   4.204   1.530
  20.00000  10.00000  10.00000
