Protein in INSANE! Membrane UpperLeaflet>DOPC=1 LowerLeaflet>DOPC=1
17010
    1PF10C   C1    1  10.303   4.011   5.385
    1PF10C   F2    2  10.382   3.790   5.411
    1PF10C   F3    3  10.353   3.783   5.628
    1PF10C   F4    4  10.355   3.555   5.662
    1PF10C   F5    5  10.187   3.550   5.803
    1PF10C   F6    6  10.278   3.395   5.947
    1PF10C   F7    7  10.199   3.486   6.131
    1PF10C   F8    8  10.142   3.288   6.233
    1PF10C   F9    9   9.947   3.358   6.307
    1PF10C  F10   10   9.871   3.429   6.102
    2PF10C   C1   11  11.418   5.417   5.862
    2PF10C   F2   12  11.362   5.257   6.025
    2PF10C   F3   13  11.566   5.180   6.049
    2PF10C   F4   14  11.553   5.092   6.261
    2PF10C   F5   15  11.753   5.162   6.321
    2PF10C   F6   16  11.809   4.976   6.444
    2PF10C   F7   17  11.916   5.089   6.600
    2PF10C   F8   18  11.838   4.971   6.780
    2PF10C   F9   19  11.810   5.147   6.909
    2PF10C  F10   20  11.747   5.030   7.096
    3PF10C   C1   21   8.486   7.438   4.677
    3PF10C   F2   22   8.566   7.401   4.894
    3PF10C   F3   23   8.591   7.183   4.874
    3PF10C   F4   24   8.582   7.120   5.095
    3PF10C   F5   25   8.729   6.955   5.083
    3PF10C   F6   26   8.810   6.977   5.297
    3PF10C   F7   27   8.798   6.762   5.343
    3PF10C   F8   28   8.987   6.744   5.474
    3PF10C   F9   29   8.896   6.605   5.619
    3PF10C  F10   30   9.092   6.518   5.702
    4DOPC   NC3   31   0.844   5.460   5.721
    4DOPC   PO4   32   1.122   5.235   5.528
    4DOPC   GL1   33   1.127   5.316   5.072
    4DOPC   GL2   34   1.437   5.347   5.131
    4DOPC   C1A   35   1.224   5.331   4.623
    4DOPC   D2A   36   1.156   5.510   4.153
    4DOPC   C3A   37   0.842   5.537   3.787
    4DOPC   C4A   38   0.687   5.651   3.325
    4DOPC   C1B   39   1.624   5.631   4.832
    4DOPC   D2B   40   1.761   5.899   4.420
    4DOPC   C3B   41   1.572   5.920   3.981
    4DOPC   C4B   42   1.159   5.929   3.691
    5DOPC   NC3   43  10.453   3.820   6.051
    5DOPC   PO4   44  10.725   3.620   5.830
    5DOPC   GL1   45  10.651   3.499   5.392
    5DOPC   GL2   46  10.965   3.512   5.375
    5DOPC   C1A   47  10.489   3.418   4.949
    5DOPC   D2A   48  10.506   3.377   4.428
    5DOPC   C3A   49  10.417   3.502   3.961
    5DOPC   C4A   50  10.282   3.597   3.486
    5DOPC   C1B   51  10.985   3.321   4.970
    5DOPC   D2B   52  10.961   3.148   4.499
    5DOPC   C3B   53  10.841   3.240   4.044
    5DOPC   C4B   54  10.736   3.322   3.553
    6DOPC   NC3   55  15.146   9.219   5.787
    6DOPC   PO4   56  14.865   9.458   5.615
    6DOPC   GL1   57  14.913   9.398   5.160
    6DOPC   GL2   58  15.019   9.123   5.260
    6DOPC   C1A   59  14.891   9.260   4.727
    6DOPC   D2A   60  14.846   8.998   4.295
    6DOPC   C3A   61  15.049   9.025   3.868
    6DOPC   C4A   62  15.437   9.149   3.569
    6DOPC   C1B   63  14.980   8.804   4.933
    6DOPC   D2B   64  14.897   8.469   4.546
    6DOPC   C3B   65  14.729   8.353   4.113
    6DOPC   C4B   66  14.452   8.303   3.699
    7DOPC   NC3   67  15.761   7.777   5.859
    7DOPC   PO4   68  16.168   7.749   5.815
    7DOPC   GL1   69  16.107   7.504   5.491
    7DOPC   GL2   70  15.803   7.523   5.476
    7DOPC   C1A   71  16.177   7.689   5.092
    7DOPC   D2A   72  16.111   7.627   4.596
    7DOPC   C3A   73  16.219   7.828   4.178
    7DOPC   C4A   74  16.364   8.009   3.732
    7DOPC   C1B   75  15.669   7.770   5.132
    7DOPC   D2B   76  15.620   7.828   4.627
    7DOPC   C3B   77  15.757   8.059   4.240
    7DOPC   C4B   78  16.017   8.346   3.909
    8DOPC   NC3   79   1.050   4.714   5.683
    8DOPC   PO4   80   0.721   4.947   5.679
    8DOPC   GL1   81   0.760   5.076   5.239
    8DOPC   GL2   82   0.985   4.883   5.244
    8DOPC   C1A   83   0.794   5.106   4.781
    8DOPC   D2A   84   0.794   5.165   4.261
    8DOPC   C3A   85   0.872   5.044   3.782
    8DOPC   C4A   86   0.901   5.033   3.261
    8DOPC   C1B   87   1.314   4.919   4.938
    8DOPC   D2B   88   1.700   5.144   4.674
    8DOPC   C3B   89   1.664   5.356   4.239
    8DOPC   C4B   90   1.487   5.453   3.774
    9DOPC   NC3   91  12.892   9.204   6.151
    9DOPC   PO4   92  12.897   9.026   5.800
    9DOPC   GL1   93  12.848   9.298   5.470
    9DOPC   GL2   94  12.621   9.158   5.343
    9DOPC   C1A   95  13.052   9.297   5.100
    9DOPC   D2A   96  13.176   9.258   4.618
    9DOPC   C3A   97  13.186   9.020   4.214
    9DOPC   C4A   98  13.227   8.732   3.826
    9DOPC   C1B   99  12.620   9.138   4.879
    9DOPC   D2B  100  12.710   9.087   4.394
    9DOPC   C3B  101  12.501   9.025   3.980
    9DOPC   C4B  102  12.244   9.052   3.558
   10DOPC   NC3  103   2.527   6.603   6.149
   10DOPC   PO4  104   2.658   6.244   6.008
   10DOPC   GL1  105   2.727   6.188   5.554
   10DOPC   GL2  106   3.012   6.241   5.566
   10DOPC   C1A  107   2.559   6.261   5.134
   10DOPC   D2A  108   2.692   6.269   4.637
   10DOPC   C3A  109   2.630   6.317   4.169
   10DOPC   C4A  110   2.484   6.357   3.709
   10DOPC   C1B  111   3.074   6.391   5.137
   10DOPC   D2B  112   3.122   6.560   4.658
   10DOPC   C3B  113   3.059   6.615   4.193
   10DOPC   C4B  114   2.985   6.587   3.704
   11DOPC   NC3  115  11.099   0.616   6.074
   11DOPC   PO4  116  10.788   0.415   5.925
   11DOPC   GL1  117  10.776   0.554   5.530
   11DOPC   GL2  118  11.100   0.540   5.570
   11DOPC   C1A  119  10.844   0.618   5.096
   11DOPC   D2A  120  11.041   0.693   4.632
   11DOPC   C3A  121  10.987   0.522   4.189
   11DOPC   C4A  122  10.961   0.148   3.853
   11DOPC   C1B  123  11.349   0.475   5.178
   11DOPC   D2B  124  11.509   0.401   4.674
   11DOPC   C3B  125  11.504   0.463   4.184
   11DOPC   C4B  126  11.526   0.663   3.716
   12DOPC   NC3  127  18.708   6.207   5.850
   12DOPC   PO4  128  19.070   6.167   5.683
   12DOPC   GL1  129  18.891   6.197   5.273
   12DOPC   GL2  130  18.691   6.014   5.405
   12DOPC   C1A  131  18.829   6.140   4.822
   12DOPC   D2A  132  18.792   6.166   4.320
   12DOPC   C3A  133  18.678   6.017   3.882
   12DOPC   C4A  134  18.662   6.070   3.384
   12DOPC   C1B  135  18.874   5.719   5.134
   12DOPC   D2B  136  18.929   5.539   4.663
   12DOPC   C3B  137  18.997   5.694   4.224
   12DOPC   C4B  138  19.180   5.895   3.816
   13DOPC   NC3  139   8.817   2.002   5.789
   13DOPC   PO4  140   8.436   2.056   5.688
   13DOPC   GL1  141   8.590   2.072   5.296
   13DOPC   GL2  142   8.741   1.813   5.353
   13DOPC   C1A  143   8.583   2.152   4.851
   13DOPC   D2A  144   8.534   2.287   4.368
   13DOPC   C3A  145   8.817   2.275   3.978
   13DOPC   C4A  146   9.061   2.103   3.565
   13DOPC   C1B  147   8.571   1.657   4.982
   13DOPC   D2B  148   8.510   1.736   4.494
   13DOPC   C3B  149   8.720   1.588   4.098
   13DOPC   C4B  150   8.735   1.423   3.631
   14DOPC   NC3  151   7.669   2.035   5.935
   14DOPC   PO4  152   7.626   1.638   6.006
   14DOPC   GL1  153   7.364   1.586   5.621
   14DOPC   GL2  154   7.294   1.875   5.712
   14DOPC   C1A  155   7.235   1.582   5.177
   14DOPC   D2A  156   7.282   1.707   4.700
   14DOPC   C3A  157   7.234   1.664   4.244
   14DOPC   C4A  158   7.018   1.739   3.820
   14DOPC   C1B  159   7.434   2.016   5.320
   14DOPC   D2B  160   7.659   2.089   4.874
   14DOPC   C3B  161   7.556   2.053   4.420
   14DOPC   C4B  162   7.499   1.989   3.937
   15DOPC   NC3  163  15.454   6.634   6.226
   15DOPC   PO4  164  15.435   6.509   5.847
   15DOPC   GL1  165  15.323   6.711   5.514
   15DOPC   GL2  166  15.028   6.733   5.609
   15DOPC   C1A  167  15.409   6.528   5.122
   15DOPC   D2A  168  15.374   6.578   4.624
   15DOPC   C3A  169  15.484   6.529   4.151
   15DOPC   C4A  170  15.410   6.468   3.653
   15DOPC   C1B  171  14.810   6.597   5.247
   15DOPC   D2B  172  14.832   6.536   4.745
   15DOPC   C3B  173  14.993   6.677   4.320
   15DOPC   C4B  174  15.089   6.806   3.855
   16DOPC   NC3  175  10.357   1.624   5.775
   16DOPC   PO4  176  10.604   1.348   5.615
   16DOPC   GL1  177  10.510   1.348   5.189
   16DOPC   GL2  178  10.364   1.606   5.292
   16DOPC   C1A  179  10.586   1.435   4.745
   16DOPC   D2A  180  10.712   1.633   4.288
   16DOPC   C3A  181  10.734   1.715   3.809
   16DOPC   C4A  182  10.529   1.655   3.338
   16DOPC   C1B  183  10.525   1.906   5.020
   16DOPC   D2B  184  10.841   1.953   4.648
   16DOPC   C3B  185  10.862   2.165   4.233
   16DOPC   C4B  186  10.796   2.329   3.782
   17DOPC   NC3  187   9.908   9.502   5.769
   17DOPC   PO4  188  10.287   9.540   5.621
   17DOPC   GL1  189  10.094   9.608   5.211
   17DOPC   GL2  190   9.846   9.688   5.340
   17DOPC   C1A  191   9.985   9.669   4.774
   17DOPC   D2A  192   9.799   9.528   4.333
   17DOPC   C3A  193   9.786   9.609   3.872
   17DOPC   C4A  194   9.849   9.866   3.458
   17DOPC   C1B  195   9.526   9.693   5.016
   17DOPC   D2B  196   9.253   9.730   4.596
   17DOPC   C3B  197   9.345   9.659   4.143
   17DOPC   C4B  198   9.320   9.344   3.769
   18DOPC   NC3  199  13.608   4.032   5.897
   18DOPC   PO4  200  13.973   4.086   5.740
   18DOPC   GL1  201  13.866   4.088   5.327
   18DOPC   GL2  202  13.590   3.963   5.396
   18DOPC   C1A  203  13.847   4.301   4.933
   18DOPC   D2A  204  13.813   4.274   4.438
   18DOPC   C3A  205  13.795   4.038   4.028
   18DOPC   C4A  206  13.729   3.846   3.569
   18DOPC   C1B  207  13.375   4.132   5.052
   18DOPC   D2B  208  13.365   4.414   4.641
   18DOPC   C3B  209  13.350   4.236   4.199
   18DOPC   C4B  210  13.371   4.189   3.708
   19DOPC   NC3  211   5.816   2.660   5.914
   19DOPC   PO4  212   6.055   2.367   5.774
   19DOPC   GL1  213   5.959   2.594   5.432
   19DOPC   GL2  214   5.649   2.631   5.475
   19DOPC   C1A  215   5.959   2.610   4.992
   19DOPC   D2A  216   5.893   2.508   4.488
   19DOPC   C3A  217   6.082   2.602   4.052
   19DOPC   C4A  218   6.125   2.605   3.553
   19DOPC   C1B  219   5.417   2.506   5.100
   19DOPC   D2B  220   5.357   2.411   4.601
   19DOPC   C3B  221   5.484   2.526   4.157
   19DOPC   C4B  222   5.687   2.813   3.804
   20DOPC   NC3  223  11.975   8.828   5.819
   20DOPC   PO4  224  11.647   8.659   5.660
   20DOPC   GL1  225  11.776   8.720   5.247
   20DOPC   GL2  226  11.989   8.925   5.348
   20DOPC   C1A  227  11.846   8.730   4.803
   20DOPC   D2A  228  11.940   8.794   4.320
   20DOPC   C3A  229  11.986   8.727   3.850
   20DOPC   C4A  230  11.945   8.674   3.356
   20DOPC   C1B  231  12.115   9.128   4.959
   20DOPC   D2B  232  12.226   9.249   4.470
   20DOPC   C3B  233  12.013   9.221   4.039
   20DOPC   C4B  234  11.735   9.140   3.628
   21DOPC   NC3  235   0.483   7.473   5.928
   21DOPC   PO4  236   0.357   7.828   5.793
   21DOPC   GL1  237   0.658   7.830   5.476
   21DOPC   GL2  238   0.610   7.521   5.450
   21DOPC   C1A  239   0.581   7.967   5.068
   21DOPC   D2A  240   0.495   7.958   4.578
   21DOPC   C3A  241   0.447   7.826   4.134
   21DOPC   C4A  242   0.249   7.864   3.686
   21DOPC   C1B  243   0.540   7.462   5.002
   21DOPC   D2B  244   0.475   7.446   4.500
   21DOPC   C3B  245   0.532   7.332   4.043
   21DOPC   C4B  246   0.558   7.144   3.593
   22DOPC   NC3  247   7.319   3.708   5.676
   22DOPC   PO4  248   6.989   3.509   5.749
   22DOPC   GL1  249   6.943   3.599   5.322
   22DOPC   GL2  250   7.179   3.385   5.307
   22DOPC   C1A  251   6.927   3.572   4.872
   22DOPC   D2A  252   6.967   3.433   4.383
   22DOPC   C3A  253   6.976   3.571   3.935
   22DOPC   C4A  254   6.730   3.852   3.603
   22DOPC   C1B  255   7.412   3.439   4.918
   22DOPC   D2B  256   7.416   3.626   4.448
   22DOPC   C3B  257   7.430   3.329   4.082
   22DOPC   C4B  258   7.461   2.956   3.757
   23DOPC   NC3  259  14.614   2.696   5.645
   23DOPC   PO4  260  14.253   2.578   5.764
   23DOPC   GL1  261  14.077   2.645   5.355
   23DOPC   GL2  262  14.205   2.930   5.382
   23DOPC   C1A  263  14.203   2.568   4.928
   23DOPC   D2A  264  14.235   2.522   4.420
   23DOPC   C3A  265  14.251   2.655   3.977
   23DOPC   C4A  266  14.423   2.609   3.525
   23DOPC   C1B  267  14.418   3.098   5.011
   23DOPC   D2B  268  14.574   3.240   4.545
   23DOPC   C3B  269  14.339   3.217   4.131
   23DOPC   C4B  270  14.164   3.086   3.677
   24DOPC   NC3  271   0.953   7.396   6.111
   24DOPC   PO4  272   0.942   7.647   5.804
   24DOPC   GL1  273   1.095   7.550   5.470
   24DOPC   GL2  274   1.210   7.281   5.487
   24DOPC   C1A  275   1.021   7.692   5.073
   24DOPC   D2A  276   0.920   7.704   4.578
   24DOPC   C3A  277   0.943   7.675   4.105
   24DOPC   C4A  278   1.222   7.648   3.692
   24DOPC   C1B  279   1.368   7.105   5.119
   24DOPC   D2B  280   1.533   7.001   4.651
   24DOPC   C3B  281   1.626   7.032   4.180
   24DOPC   C4B  282   1.502   7.163   3.716
   25DOPC   NC3  283   6.722   6.488   5.705
   25DOPC   PO4  284   6.844   6.871   5.766
   25DOPC   GL1  285   6.768   7.098   5.415
   25DOPC   GL2  286   6.852   7.365   5.536
   25DOPC   C1A  287   6.847   7.044   4.965
   25DOPC   D2A  288   6.802   6.930   4.466
   25DOPC   C3A  289   6.867   7.106   4.022
   25DOPC   C4A  290   6.887   7.441   3.643
   25DOPC   C1B  291   6.976   7.516   5.129
   25DOPC   D2B  292   7.038   7.411   4.628
   25DOPC   C3B  293   7.019   7.601   4.178
   25DOPC   C4B  294   7.098   7.890   3.768
   26DOPC   NC3  295  17.925   5.144   6.141
   26DOPC   PO4  296  18.091   4.971   5.816
   26DOPC   GL1  297  18.248   5.138   5.430
   26DOPC   GL2  298  18.365   4.867   5.342
   26DOPC   C1A  299  18.186   5.256   5.014
   26DOPC   D2A  300  18.081   5.450   4.559
   26DOPC   C3A  301  17.967   5.286   4.124
   26DOPC   C4A  302  17.687   5.064   3.775
   26DOPC   C1B  303  18.465   4.803   4.887
   26DOPC   D2B  304  18.588   4.720   4.394
   26DOPC   C3B  305  18.539   4.720   3.917
   26DOPC   C4B  306  18.466   4.691   3.414
   27DOPC   NC3  307  18.765   1.404   5.958
   27DOPC   PO4  308  18.487   1.152   5.823
   27DOPC   GL1  309  18.564   1.359   5.452
   27DOPC   GL2  310  18.870   1.386   5.516
   27DOPC   C1A  311  18.648   1.304   5.018
   27DOPC   D2A  312  18.832   1.413   4.568
   27DOPC   C3A  313  18.739   1.408   4.116
   27DOPC   C4A  314  18.695   1.121   3.716
   27DOPC   C1B  315  19.142   1.337   5.173
   27DOPC   D2B  316  19.275   1.218   4.706
   27DOPC   C3B  317  19.211   1.263   4.239
   27DOPC   C4B  318  19.147   1.408   3.758
   28DOPC   NC3  319   5.041   6.259   5.930
   28DOPC   PO4  320   4.730   6.457   5.765
   28DOPC   GL1  321   4.509   6.373   5.418
   28DOPC   GL2  322   4.223   6.399   5.527
   28DOPC   C1A  323   4.504   6.226   4.998
   28DOPC   D2A  324   4.439   6.076   4.533
   28DOPC   C3A  325   4.461   6.335   4.153
   28DOPC   C4A  326   4.593   6.614   3.767
   28DOPC   C1B  327   4.030   6.344   5.108
   28DOPC   D2B  328   3.951   6.240   4.603
   28DOPC   C3B  329   3.944   6.456   4.174
   28DOPC   C4B  330   3.935   6.720   3.758
   29DOPC   NC3  331  13.011   5.138   5.835
   29DOPC   PO4  332  12.795   5.472   5.784
   29DOPC   GL1  333  12.993   5.407   5.393
   29DOPC   GL2  334  12.748   5.230   5.310
   29DOPC   C1A  335  13.185   5.154   5.075
   29DOPC   D2A  336  13.299   4.951   4.623
   29DOPC   C3A  337  13.290   5.122   4.173
   29DOPC   C4A  338  13.256   5.302   3.719
   29DOPC   C1B  339  12.734   5.122   4.853
   29DOPC   D2B  340  12.827   5.104   4.351
   29DOPC   C3B  341  12.802   4.964   3.884
   29DOPC   C4B  342  12.554   4.847   3.450
   30DOPC   NC3  343   2.791   3.077   5.875
   30DOPC   PO4  344   2.405   3.185   5.797
   30DOPC   GL1  345   2.396   3.210   5.341
   30DOPC   GL2  346   2.511   3.498   5.365
   30DOPC   C1A  347   2.507   3.205   4.908
   30DOPC   D2A  348   2.743   3.370   4.497
   30DOPC   C3A  349   2.466   3.188   4.176
   30DOPC   C4A  350   2.254   3.207   3.740
   30DOPC   C1B  351   2.500   3.739   4.972
   30DOPC   D2B  352   2.563   3.947   4.509
   30DOPC   C3B  353   2.631   3.696   4.109
   30DOPC   C4B  354   2.883   3.322   3.895
   31DOPC   NC3  355   0.287   3.971   5.814
   31DOPC   PO4  356   0.159   4.321   5.957
   31DOPC   GL1  357   0.110   4.530   5.563
   31DOPC   GL2  358   0.146   4.257   5.484
   31DOPC   C1A  359   0.136   4.553   5.110
   31DOPC   D2A  360   0.340   4.473   4.645
   31DOPC   C3A  361   0.197   4.408   4.194
   31DOPC   C4A  362  19.960   4.387   3.748
   31DOPC   C1B  363   0.494   4.200   5.230
   31DOPC   D2B  364   0.734   4.122   4.798
   31DOPC   C3B  365   0.720   4.223   4.343
   31DOPC   C4B  366   0.829   4.214   3.870
   32DOPC   NC3  367   3.535   2.177   6.024
   32DOPC   PO4  368   3.756   2.216   5.689
   32DOPC   GL1  369   3.720   2.132   5.261
   32DOPC   GL2  370   3.925   1.892   5.304
   32DOPC   C1A  371   3.615   2.140   4.815
   32DOPC   D2A  372   3.315   2.065   4.412
   32DOPC   C3A  373   3.287   2.035   3.939
   32DOPC   C4A  374   3.681   1.829   3.721
   32DOPC   C1B  375   4.020   1.802   4.875
   32DOPC   D2B  376   3.941   1.861   4.387
   32DOPC   C3B  377   3.743   2.179   4.109
   32DOPC   C4B  378   3.558   2.435   3.732
   33DOPC   NC3  379   8.536   0.363   5.789
   33DOPC   PO4  380   8.492   0.752   5.669
   33DOPC   GL1  381   8.487   0.720   5.208
   33DOPC   GL2  382   8.655   0.470   5.301
   33DOPC   C1A  383   8.584   0.683   4.762
   33DOPC   D2A  384   8.745   0.445   4.345
   33DOPC   C3A  385   8.679   0.602   3.897
   33DOPC   C4A  386   8.641   0.461   3.419
   33DOPC   C1B  387   8.913   0.339   4.958
   33DOPC   D2B  388   9.201   0.230   4.555
   33DOPC   C3B  389   9.093   0.112   4.114
   33DOPC   C4B  390   8.757   0.122   3.758
   34DOPC   NC3  391  10.395   6.509   5.984
   34DOPC   PO4  392  10.413   6.151   5.799
   34DOPC   GL1  393  10.772   6.217   5.561
   34DOPC   GL2  394  10.801   6.518   5.582
   34DOPC   C1A  395  10.722   6.232   5.125
   34DOPC   D2A  396  10.742   6.358   4.639
   34DOPC   C3A  397  10.762   6.326   4.167
   34DOPC   C4A  398  10.842   6.531   3.727
   34DOPC   C1B  399  10.870   6.704   5.135
   34DOPC   D2B  400  10.954   6.815   4.632
   34DOPC   C3B  401  10.801   6.832   4.169
   34DOPC   C4B  402  10.547   6.939   3.733
   35DOPC   NC3  403  11.124   1.418   5.828
   35DOPC   PO4  404  10.846   1.692   5.913
   35DOPC   GL1  405  10.787   1.774   5.491
   35DOPC   GL2  406  11.079   1.910   5.517
   35DOPC   C1A  407  10.916   1.599   5.099
   35DOPC   D2A  408  11.219   1.641   4.692
   35DOPC   C3A  409  11.204   1.789   4.238
   35DOPC   C4A  410  11.205   2.003   3.780
   35DOPC   C1B  411  11.219   1.992   5.093
   35DOPC   D2B  412  11.316   2.147   4.614
   35DOPC   C3B  413  11.521   2.199   4.191
   35DOPC   C4B  414  11.707   2.275   3.736
   36DOPC   NC3  415  17.731   7.906   6.025
   36DOPC   PO4  416  17.863   7.714   5.703
   36DOPC   GL1  417  18.102   7.823   5.369
   36DOPC   GL2  418  18.276   8.017   5.534
   36DOPC   C1A  419  18.095   7.932   4.925
   36DOPC   D2A  420  18.187   8.159   4.472
   36DOPC   C3A  421  18.078   8.148   4.000
   36DOPC   C4A  422  17.849   7.946   3.603
   36DOPC   C1B  423  18.522   8.084   5.164
   36DOPC   D2B  424  18.653   7.979   4.677
   36DOPC   C3B  425  18.622   8.064   4.210
   36DOPC   C4B  426  18.535   8.317   3.794
   37DOPC   NC3  427  17.273   1.162   6.352
   37DOPC   PO4  428  17.262   1.205   5.955
   37DOPC   GL1  429  17.502   1.340   5.630
   37DOPC   GL2  430  17.656   1.080   5.563
   37DOPC   C1A  431  17.315   1.401   5.236
   37DOPC   D2A  432  17.349   1.572   4.763
   37DOPC   C3A  433  17.174   1.407   4.354
   37DOPC   C4A  434  17.018   1.199   3.919
   37DOPC   C1B  435  17.614   0.993   5.095
   37DOPC   D2B  436  17.557   0.980   4.582
   37DOPC   C3B  437  17.490   1.090   4.120
   37DOPC   C4B  438  17.466   1.266   3.650
   38DOPC   NC3  439  14.893   9.959   5.751
   38DOPC   PO4  440  14.518   9.863   5.652
   38DOPC   GL1  441  14.630   9.741   5.293
   38DOPC   GL2  442  14.904   9.820   5.306
   38DOPC   C1A  443  14.527   9.565   4.905
   38DOPC   D2A  444  14.467   9.350   4.452
   38DOPC   C3A  445  14.769   9.471   4.096
   38DOPC   C4A  446  14.826   9.415   3.599
   38DOPC   C1B  447  14.821   0.023   4.942
   38DOPC   D2B  448  14.943   0.193   4.494
   38DOPC   C3B  449  15.088   9.879   4.168
   38DOPC   C4B  450  15.278   9.481   3.936
   39DOPC   NC3  451  15.842   6.777   5.925
   39DOPC   PO4  452  16.186   6.841   5.746
   39DOPC   GL1  453  16.068   6.521   5.452
   39DOPC   GL2  454  15.787   6.640   5.482
   39DOPC   C1A  455  16.022   6.341   5.027
   39DOPC   D2A  456  16.120   6.170   4.562
   39DOPC   C3A  457  16.016   6.379   4.159
   39DOPC   C4A  458  15.905   6.573   3.722
   39DOPC   C1B  459  15.868   6.804   5.083
   39DOPC   D2B  460  15.878   6.661   4.602
   39DOPC   C3B  461  15.892   6.881   4.193
   39DOPC   C4B  462  16.062   7.054   3.774
   40DOPC   NC3  463  19.324   8.880   5.670
   40DOPC   PO4  464  19.029   8.608   5.678
   40DOPC   GL1  465  18.851   8.870   5.414
   40DOPC   GL2  466  19.047   9.093   5.362
   40DOPC   C1A  467  18.869   8.775   4.991
   40DOPC   D2A  468  19.089   8.866   4.562
   40DOPC   C3A  469  18.923   8.822   4.136
   40DOPC   C4A  470  18.651   8.821   3.724
   40DOPC   C1B  471  19.080   9.219   4.919
   40DOPC   D2B  472  18.898   9.319   4.461
   40DOPC   C3B  473  18.919   9.308   3.999
   40DOPC   C4B  474  19.104   9.068   3.614
   41DOPC   NC3  475  17.460   0.277   5.787
   41DOPC   PO4  476  17.614   0.610   5.628
   41DOPC   GL1  477  17.379   0.453   5.316
   41DOPC   GL2  478  17.127   0.467   5.505
   41DOPC   C1A  479  17.388   0.569   4.873
   41DOPC   D2A  480  17.430   0.523   4.361
   41DOPC   C3A  481  17.425   0.250   3.966
   41DOPC   C4A  482  17.545   9.951   3.583
   41DOPC   C1B  483  17.091   0.853   5.282
   41DOPC   D2B  484  17.111   1.065   4.822
   41DOPC   C3B  485  17.084   0.893   4.371
   41DOPC   C4B  486  17.217   0.718   3.913
   42DOPC   NC3  487   0.693   8.193   5.780
   42DOPC   PO4  488   0.690   8.471   5.502
   42DOPC   GL1  489   0.502   8.470   5.131
   42DOPC   GL2  490   0.286   8.283   5.243
   42DOPC   C1A  491   0.556   8.447   4.687
   42DOPC   D2A  492   0.459   8.344   4.192
   42DOPC   C3A  493   0.675   8.150   3.805
   42DOPC   C4A  494   0.968   8.015   3.411
   42DOPC   C1B  495   0.134   8.167   4.855
   42DOPC   D2B  496   0.038   8.014   4.375
   42DOPC   C3B  497  19.855   8.047   3.948
   42DOPC   C4B  498  19.910   8.251   3.490
   43DOPC   NC3  499   1.713   2.031   5.949
   43DOPC   PO4  500   1.628   1.693   5.757
   43DOPC   GL1  501   1.808   1.872   5.412
   43DOPC   GL2  502   2.047   2.015   5.562
   43DOPC   C1A  503   1.827   1.970   4.963
   43DOPC   D2A  504   1.809   2.059   4.468
   43DOPC   C3A  505   1.742   2.015   3.998
   43DOPC   C4A  506   1.746   2.012   3.499
   43DOPC   C1B  507   2.278   2.145   5.181
   43DOPC   D2B  508   2.255   2.290   4.686
   43DOPC   C3B  509   2.238   2.196   4.210
   43DOPC   C4B  510   2.223   1.948   3.774
   44DOPC   NC3  511  12.998   0.584   5.915
   44DOPC   PO4  512  12.608   0.508   5.892
   44DOPC   GL1  513  12.652   0.557   5.488
   44DOPC   GL2  514  12.844   0.786   5.522
   44DOPC   C1A  515  12.583   0.435   5.063
   44DOPC   D2A  516  12.382   0.395   4.592
   44DOPC   C3A  517  12.378   0.349   4.110
   44DOPC   C4A  518  12.411   0.453   3.619
   44DOPC   C1B  519  12.826   0.873   5.115
   44DOPC   D2B  520  12.781   0.735   4.647
   44DOPC   C3B  521  12.825   0.436   4.295
   44DOPC   C4B  522  12.852   0.268   3.825
   45DOPC   NC3  523   6.060   6.617   6.131
   45DOPC   PO4  524   6.398   6.770   5.997
   45DOPC   GL1  525   6.421   6.851   5.558
   45DOPC   GL2  526   6.311   6.577   5.525
   45DOPC   C1A  527   6.374   6.982   5.144
   45DOPC   D2A  528   6.299   7.057   4.657
   45DOPC   C3A  529   6.342   6.742   4.305
   45DOPC   C4A  530   6.350   6.689   3.812
   45DOPC   C1B  531   6.391   6.322   5.170
   45DOPC   D2B  532   6.329   6.154   4.682
   45DOPC   C3B  533   6.340   6.164   4.193
   45DOPC   C4B  534   6.359   6.191   3.699
   46DOPC   NC3  535  12.374   5.593   6.088
   46DOPC   PO4  536  12.276   5.658   5.706
   46DOPC   GL1  537  12.596   5.638   5.387
   46DOPC   GL2  538  12.697   5.882   5.506
   46DOPC   C1A  539  12.790   5.607   4.971
   46DOPC   D2A  540  12.863   5.613   4.461
   46DOPC   C3A  541  12.844   5.497   3.987
   46DOPC   C4A  542  12.707   5.334   3.522
   46DOPC   C1B  543  12.949   6.050   5.171
   46DOPC   D2B  544  13.141   5.993   4.698
   46DOPC   C3B  545  13.002   6.055   4.241
   46DOPC   C4B  546  12.799   5.993   3.789
   47DOPC   NC3  547   7.598   1.173   5.771
   47DOPC   PO4  548   7.200   1.159   5.707
   47DOPC   GL1  549   7.259   1.124   5.259
   47DOPC   GL2  550   7.527   1.255   5.320
   47DOPC   C1A  551   7.202   1.215   4.797
   47DOPC   D2A  552   7.105   1.182   4.301
   47DOPC   C3A  553   7.124   1.187   3.830
   47DOPC   C4A  554   7.319   1.110   3.382
   47DOPC   C1B  555   7.649   1.410   4.929
   47DOPC   D2B  556   7.716   1.170   4.502
   47DOPC   C3B  557   7.570   1.291   4.077
   47DOPC   C4B  558   7.456   1.537   3.667
   48DOPC   NC3  559   6.339   9.480   5.970
   48DOPC   PO4  560   6.004   9.344   5.786
   48DOPC   GL1  561   5.860   9.411   5.365
   48DOPC   GL2  562   6.043   9.664   5.373
   48DOPC   C1A  563   6.060   9.367   4.968
   48DOPC   D2A  564   6.257   9.333   4.512
   48DOPC   C3A  565   6.169   9.468   4.078
   48DOPC   C4A  566   6.221   9.623   3.608
   48DOPC   C1B  567   6.200   9.867   4.986
   48DOPC   D2B  568   6.244   9.863   4.473
   48DOPC   C3B  569   6.469   9.890   4.044
   48DOPC   C4B  570   6.695   9.909   3.600
   49DOPC   NC3  571  14.628   4.834   5.896
   49DOPC   PO4  572  14.508   5.221   5.855
   49DOPC   GL1  573  14.321   5.393   5.504
   49DOPC   GL2  574  14.137   5.130   5.506
   49DOPC   C1A  575  14.456   5.372   5.080
   49DOPC   D2A  576  14.567   5.412   4.590
   49DOPC   C3A  577  14.444   5.226   4.163
   49DOPC   C4A  578  14.378   5.075   3.682
   49DOPC   C1B  579  14.092   4.985   5.081
   49DOPC   D2B  580  14.177   5.078   4.592
   49DOPC   C3B  581  14.041   4.893   4.172
   49DOPC   C4B  582  13.851   4.629   3.788
   50DOPC   NC3  583   3.509   9.647   5.785
   50DOPC   PO4  584   3.825   9.860   5.667
   50DOPC   GL1  585   3.770   9.716   5.259
   50DOPC   GL2  586   3.462   9.698   5.333
   50DOPC   C1A  587   3.800   9.778   4.803
   50DOPC   D2A  588   3.850   9.784   4.285
   50DOPC   C3A  589   3.771   9.891   3.815
   50DOPC   C4A  590   3.755   9.814   3.318
   50DOPC   C1B  591   3.290   9.799   4.957
   50DOPC   D2B  592   3.382   9.684   4.482
   50DOPC   C3B  593   3.377   9.650   4.010
   50DOPC   C4B  594   3.436   9.491   3.546
   51DOPC   NC3  595   9.459   6.374   6.296
   51DOPC   PO4  596   9.477   6.700   6.053
   51DOPC   GL1  597   9.438   6.770   5.591
   51DOPC   GL2  598   9.656   6.520   5.595
   51DOPC   C1A  599   9.238   6.913   5.190
   51DOPC   D2A  600   9.090   6.959   4.695
   51DOPC   C3A  601   9.206   7.104   4.239
   51DOPC   C4A  602   9.272   7.327   3.786
   51DOPC   C1B  603   9.966   6.412   5.257
   51DOPC   D2B  604  10.263   6.304   4.840
   51DOPC   C3B  605  10.293   6.366   4.353
   51DOPC   C4B  606  10.359   6.420   3.844
   52DOPC   NC3  607   1.345   3.964   5.652
   52DOPC   PO4  608   1.449   4.357   5.671
   52DOPC   GL1  609   1.094   4.311   5.415
   52DOPC   GL2  610   1.221   4.515   5.231
   52DOPC   C1A  611   1.144   3.984   5.110
   52DOPC   D2A  612   1.186   3.782   4.647
   52DOPC   C3A  613   1.160   3.943   4.209
   52DOPC   C4A  614   1.334   4.139   3.793
   52DOPC   C1B  615   1.168   4.423   4.792
   52DOPC   D2B  616   1.247   4.440   4.294
   52DOPC   C3B  617   1.141   4.617   3.873
   52DOPC   C4B  618   0.803   4.606   3.510
   53DOPC   NC3  619   4.589   5.200   5.870
   53DOPC   PO4  620   4.533   5.564   5.706
   53DOPC   GL1  621   4.565   5.436   5.319
   53DOPC   GL2  622   4.551   5.136   5.368
   53DOPC   C1A  623   4.231   5.388   5.049
   53DOPC   D2A  624   4.140   5.230   4.595
   53DOPC   C3A  625   4.285   5.319   4.170
   53DOPC   C4A  626   4.540   5.354   3.754
   53DOPC   C1B  627   4.388   4.900   4.992
   53DOPC   D2B  628   4.407   4.744   4.506
   53DOPC   C3B  629   4.420   4.831   4.037
   53DOPC   C4B  630   4.469   4.890   3.536
   54DOPC   NC3  631  17.555   4.923   5.809
   54DOPC   PO4  632  17.588   4.578   5.611
   54DOPC   GL1  633  17.917   4.769   5.413
   54DOPC   GL2  634  17.797   5.051   5.431
   54DOPC   C1A  635  17.974   4.770   4.980
   54DOPC   D2A  636  18.082   4.915   4.511
   54DOPC   C3A  637  17.668   4.903   4.274
   54DOPC   C4A  638  17.290   4.763   3.966
   54DOPC   C1B  639  17.686   5.224   5.016
   54DOPC   D2B  640  17.585   5.354   4.528
   54DOPC   C3B  641  17.301   5.268   4.158
   54DOPC   C4B  642  17.186   5.179   3.686
   55DOPC   NC3  643   8.700   4.495   5.843
   55DOPC   PO4  644   8.339   4.566   5.687
   55DOPC   GL1  645   8.392   4.452   5.271
   55DOPC   GL2  646   8.445   4.172   5.421
   55DOPC   C1A  647   8.367   4.433   4.799
   55DOPC   D2A  648   8.316   4.393   4.301
   55DOPC   C3A  649   8.313   3.972   4.104
   55DOPC   C4A  650   8.215   3.588   3.834
   55DOPC   C1B  651   8.624   4.061   5.043
   55DOPC   D2B  652   8.625   4.015   4.544
   55DOPC   C3B  653   8.803   4.063   4.111
   55DOPC   C4B  654   8.552   4.045   3.672
   56DOPC   NC3  655   7.400   2.759   5.878
   56DOPC   PO4  656   7.268   2.378   5.913
   56DOPC   GL1  657   7.225   2.382   5.495
   56DOPC   GL2  658   7.147   2.663   5.511
   56DOPC   C1A  659   7.387   2.470   5.095
   56DOPC   D2A  660   7.311   2.640   4.622
   56DOPC   C3A  661   7.361   2.502   4.172
   56DOPC   C4A  662   7.457   2.446   3.700
   56DOPC   C1B  663   7.015   2.931   5.191
   56DOPC   D2B  664   7.063   3.074   4.718
   56DOPC   C3B  665   7.066   2.934   4.250
   56DOPC   C4B  666   7.004   2.752   3.776
   57DOPC   NC3  667  11.971   8.060   5.875
   57DOPC   PO4  668  12.211   8.387   5.869
   57DOPC   GL1  669  12.075   8.495   5.494
   57DOPC   GL2  670  11.857   8.284   5.465
   57DOPC   C1A  671  12.234   8.616   5.097
   57DOPC   D2A  672  12.348   8.778   4.628
   57DOPC   C3A  673  12.348   8.550   4.209
   57DOPC   C4A  674  12.154   8.217   3.899
   57DOPC   C1B  675  11.806   8.277   5.020
   57DOPC   D2B  676  11.835   8.312   4.506
   57DOPC   C3B  677  11.701   8.372   4.053
   57DOPC   C4B  678  11.739   8.248   3.561
   58DOPC   NC3  679   3.537   3.169   6.203
   58DOPC   PO4  680   3.306   3.126   5.870
   58DOPC   GL1  681   3.325   2.890   5.491
   58DOPC   GL2  682   3.457   3.160   5.389
   58DOPC   C1A  683   3.357   2.837   5.057
   58DOPC   D2A  684   3.528   2.970   4.599
   58DOPC   C3A  685   3.410   3.217   4.212
   58DOPC   C4A  686   3.524   3.407   3.763
   58DOPC   C1B  687   3.320   3.334   4.976
   58DOPC   D2B  688   3.221   3.578   4.540
   58DOPC   C3B  689   3.183   3.695   4.075
   58DOPC   C4B  690   3.108   3.666   3.579
   59DOPC   NC3  691  16.705   0.532   5.858
   59DOPC   PO4  692  16.435   0.267   5.721
   59DOPC   GL1  693  16.452   0.398   5.313
   59DOPC   GL2  694  16.704   0.553   5.389
   59DOPC   C1A  695  16.521   0.302   4.877
   59DOPC   D2A  696  16.560   0.127   4.407
   59DOPC   C3A  697  16.495   0.165   3.934
   59DOPC   C4A  698  16.404   0.103   3.443
   59DOPC   C1B  699  16.970   0.382   5.092
   59DOPC   D2B  700  17.029   0.297   4.607
   59DOPC   C3B  701  16.943   0.346   4.140
   59DOPC   C4B  702  16.836   0.478   3.661
   60DOPC   NC3  703   7.583   5.029   6.003
   60DOPC   PO4  704   7.269   4.950   5.756
   60DOPC   GL1  705   7.219   5.141   5.340
   60DOPC   GL2  706   6.908   5.153   5.396
   60DOPC   C1A  707   7.324   5.156   4.873
   60DOPC   D2A  708   7.419   5.210   4.357
   60DOPC   C3A  709   7.377   5.352   3.890
   60DOPC   C4A  710   7.326   5.449   3.399
   60DOPC   C1B  711   6.835   5.065   4.964
   60DOPC   D2B  712   6.953   5.060   4.473
   60DOPC   C3B  713   7.051   4.989   4.017
   60DOPC   C4B  714   7.170   4.995   3.523
   61DOPC   NC3  715  18.687   8.828   5.963
   61DOPC   PO4  716  18.908   9.132   5.831
   61DOPC   GL1  717  18.666   9.296   5.509
   61DOPC   GL2  718  18.476   9.045   5.575
   61DOPC   C1A  719  18.604   9.207   5.079
   61DOPC   D2A  720  18.576   8.970   4.629
   61DOPC   C3A  721  18.478   9.096   4.187
   61DOPC   C4A  722  18.212   9.204   3.789
   61DOPC   C1B  723  18.437   8.728   5.231
   61DOPC   D2B  724  18.495   8.478   4.774
   61DOPC   C3B  725  18.462   8.568   4.294
   61DOPC   C4B  726  18.179   8.681   3.893
   62DOPC   NC3  727   0.274   7.016   5.762
   62DOPC   PO4  728   0.151   7.356   5.588
   62DOPC   GL1  729   0.220   7.180   5.223
   62DOPC   GL2  730   0.484   7.061   5.317
   62DOPC   C1A  731   0.177   7.126   4.778
   62DOPC   D2A  732   0.239   7.004   4.301
   62DOPC   C3A  733   0.152   6.906   3.850
   62DOPC   C4A  734   0.134   7.000   3.354
   62DOPC   C1B  735   0.631   6.966   4.901
   62DOPC   D2B  736   0.762   7.014   4.409
   62DOPC   C3B  737   0.665   6.821   3.979
   62DOPC   C4B  738   0.458   6.619   3.558
   63DOPC   NC3  739  12.169   9.728   5.718
   63DOPC   PO4  740  12.393   0.063   5.695
   63DOPC   GL1  741  12.494   0.013   5.271
   63DOPC   GL2  742  12.263   9.799   5.253
   63DOPC   C1A  743  12.520   9.986   4.823
   63DOPC   D2A  744  12.387   9.883   4.346
   63DOPC   C3A  745  12.230   9.687   3.932
   63DOPC   C4A  746  12.143   9.589   3.438
   63DOPC   C1B  747  12.143   9.644   4.831
   63DOPC   D2B  748  11.897   9.622   4.375
   63DOPC   C3B  749  11.548   9.467   4.084
   63DOPC   C4B  750  11.254   9.357   3.693
   64DOPC   NC3  751  10.020   8.343   5.711
   64DOPC   PO4  752   9.617   8.411   5.720
   64DOPC   GL1  753   9.644   8.714   5.374
   64DOPC   GL2  754   9.882   8.538   5.290
   64DOPC   C1A  755   9.542   8.819   4.957
   64DOPC   D2A  756   9.462   8.753   4.468
   64DOPC   C3A  757   9.561   8.528   4.069
   64DOPC   C4A  758   9.498   8.212   3.695
   64DOPC   C1B  759   9.859   8.415   4.847
   64DOPC   D2B  760  10.005   8.291   4.375
   64DOPC   C3B  761   9.974   8.153   3.919
   64DOPC   C4B  762   9.909   7.991   3.445
   65DOPC   NC3  763  13.982   5.892   6.092
   65DOPC   PO4  764  13.635   5.852   5.899
   65DOPC   GL1  765  13.702   5.622   5.525
   65DOPC   GL2  766  13.400   5.576   5.541
   65DOPC   C1A  767  13.798   5.721   5.089
   65DOPC   D2A  768  13.755   5.716   4.587
   65DOPC   C3A  769  13.773   5.893   4.150
   65DOPC   C4A  770  13.844   6.078   3.697
   65DOPC   C1B  771  13.293   5.646   5.118
   65DOPC   D2B  772  13.301   5.467   4.648
   65DOPC   C3B  773  13.318   5.645   4.207
   65DOPC   C4B  774  13.334   5.949   3.807
   66DOPC   NC3  775  15.313   2.830   5.879
   66DOPC   PO4  776  15.090   2.521   5.775
   66DOPC   GL1  777  15.196   2.623   5.359
   66DOPC   GL2  778  15.050   2.895   5.477
   66DOPC   C1A  779  15.120   2.561   4.884
   66DOPC   D2A  780  14.998   2.495   4.381
   66DOPC   C3A  781  15.017   2.644   3.915
   66DOPC   C4A  782  14.939   2.786   3.419
   66DOPC   C1B  783  14.777   2.797   5.163
   66DOPC   D2B  784  14.624   2.720   4.691
   66DOPC   C3B  785  14.647   2.829   4.235
   66DOPC   C4B  786  14.666   3.013   3.774
   67DOPC   NC3  787  16.104   9.940   5.955
   67DOPC   PO4  788  16.288   9.753   5.652
   67DOPC   GL1  789  16.189   9.619   5.233
   67DOPC   GL2  790  15.894   9.741   5.289
   67DOPC   C1A  791  16.284   9.695   4.784
   67DOPC   D2A  792  16.319   9.693   4.267
   67DOPC   C3A  793  16.229   9.732   3.802
   67DOPC   C4A  794  16.194   9.511   3.358
   67DOPC   C1B  795  15.703   9.955   4.909
   67DOPC   D2B  796  15.523   0.083   4.442
   67DOPC   C3B  797  15.598   9.886   4.011
   67DOPC   C4B  798  15.729   9.650   3.592
   68DOPC   NC3  799   2.626   9.121   5.978
   68DOPC   PO4  800   2.309   8.981   5.781
   68DOPC   GL1  801   2.467   9.132   5.405
   68DOPC   GL2  802   2.700   9.268   5.543
   68DOPC   C1A  803   2.663   9.110   5.000
   68DOPC   D2A  804   2.750   9.036   4.507
   68DOPC   C3A  805   2.649   8.936   4.050
   68DOPC   C4A  806   2.496   8.763   3.596
   68DOPC   C1B  807   2.978   9.440   5.236
   68DOPC   D2B  808   3.118   9.347   4.762
   68DOPC   C3B  809   3.090   9.325   4.289
   68DOPC   C4B  810   3.063   9.230   3.803
   69DOPC   NC3  811   7.113   1.564   6.018
   69DOPC   PO4  812   6.865   1.567   5.697
   69DOPC   GL1  813   6.866   1.290   5.377
   69DOPC   GL2  814   6.616   1.140   5.473
   69DOPC   C1A  815   6.769   1.415   4.964
   69DOPC   D2A  816   6.778   1.529   4.481
   69DOPC   C3A  817   6.684   1.375   4.043
   69DOPC   C4A  818   6.576   1.202   3.587
   69DOPC   C1B  819   6.407   1.046   5.082
   69DOPC   D2B  820   6.354   1.205   4.601
   69DOPC   C3B  821   6.186   1.271   4.160
   69DOPC   C4B  822   6.105   1.385   3.679
   70DOPC   NC3  823  12.453   8.781   5.564
   70DOPC   PO4  824  12.821   8.701   5.419
   70DOPC   GL1  825  12.933   8.845   5.040
   70DOPC   GL2  826  12.672   8.681   4.958
   70DOPC   C1A  827  13.025   8.763   4.625
   70DOPC   D2A  828  12.848   8.633   4.161
   70DOPC   C3A  829  12.964   8.297   3.844
   70DOPC   C4A  830  13.132   7.881   3.615
   70DOPC   C1B  831  12.668   8.394   4.600
   70DOPC   D2B  832  12.611   8.110   4.178
   70DOPC   C3B  833  12.573   7.991   3.717
   70DOPC   C4B  834  12.505   7.800   3.265
   71DOPC   NC3  835   5.813   3.568   6.032
   71DOPC   PO4  836   5.457   3.738   5.951
   71DOPC   GL1  837   5.524   3.957   5.572
   71DOPC   GL2  838   5.819   3.840   5.626
   71DOPC   C1A  839   5.617   3.975   5.132
   71DOPC   D2A  840   5.677   3.968   4.621
   71DOPC   C3A  841   5.674   3.766   4.180
   71DOPC   C4A  842   5.546   3.420   3.838
   71DOPC   C1B  843   5.999   3.626   5.260
   71DOPC   D2B  844   6.160   3.453   4.811
   71DOPC   C3B  845   6.117   3.491   4.339
   71DOPC   C4B  846   6.073   3.472   3.843
   72DOPC   NC3  847  14.023   6.793   5.680
   72DOPC   PO4  848  14.397   6.883   5.646
   72DOPC   GL1  849  14.258   7.028   5.246
   72DOPC   GL2  850  14.558   7.114   5.279
   72DOPC   C1A  851  14.049   7.077   4.815
   72DOPC   D2A  852  13.975   7.329   4.366
   72DOPC   C3A  853  13.990   7.433   3.889
   72DOPC   C4A  854  14.009   7.430   3.382
   72DOPC   C1B  855  14.493   7.281   4.904
   72DOPC   D2B  856  14.431   7.540   4.492
   72DOPC   C3B  857  14.444   7.343   4.096
   72DOPC   C4B  858  14.484   7.374   3.628
   73DOPC   NC3  859  10.787   2.173   5.797
   73DOPC   PO4  860  11.110   2.402   5.826
   73DOPC   GL1  861  11.143   2.602   5.437
   73DOPC   GL2  862  11.031   2.329   5.346
   73DOPC   C1A  863  10.942   2.819   5.109
   73DOPC   D2A  864  10.649   2.799   4.698
   73DOPC   C3A  865  10.730   2.764   4.229
   73DOPC   C4A  866  10.801   2.833   3.739
   73DOPC   C1B  867  10.820   2.349   4.945
   73DOPC   D2B  868  10.489   2.310   4.552
   73DOPC   C3B  869  10.398   2.397   4.085
   73DOPC   C4B  870  10.359   2.554   3.602
   74DOPC   NC3  871   5.330   8.078   5.729
   74DOPC   PO4  872   5.041   8.351   5.690
   74DOPC   GL1  873   4.930   8.311   5.295
   74DOPC   GL2  874   5.119   8.071   5.235
   74DOPC   C1A  875   5.046   8.478   4.918
   74DOPC   D2A  876   5.088   8.699   4.476
   74DOPC   C3A  877   4.994   8.488   4.060
   74DOPC   C4A  878   4.884   8.353   3.592
   74DOPC   C1B  879   5.049   7.984   4.776
   74DOPC   D2B  880   4.979   7.869   4.275
   74DOPC   C3B  881   5.026   7.922   3.794
   74DOPC   C4B  882   5.293   8.094   3.388
   75DOPC   NC3  883   8.103   0.604   6.023
   75DOPC   PO4  884   7.998   0.865   5.730
   75DOPC   GL1  885   8.050   0.671   5.331
   75DOPC   GL2  886   8.209   0.442   5.435
   75DOPC   C1A  887   7.933   0.589   4.891
   75DOPC   D2A  888   7.817   0.666   4.402
   75DOPC   C3A  889   7.826   0.549   3.938
   75DOPC   C4A  890   7.828   0.485   3.443
   75DOPC   C1B  891   8.329   0.315   5.006
   75DOPC   D2B  892   8.258   0.385   4.493
   75DOPC   C3B  893   8.290   0.278   4.019
   75DOPC   C4B  894   8.242   0.160   3.530
   76DOPC   NC3  895   5.899   0.717   5.883
   76DOPC   PO4  896   6.216   0.644   5.648
   76DOPC   GL1  897   6.026   0.763   5.278
   76DOPC   GL2  898   5.771   0.872   5.439
   76DOPC   C1A  899   5.943   0.946   4.871
   76DOPC   D2A  900   5.750   1.082   4.418
   76DOPC   C3A  901   5.712   1.144   3.940
   76DOPC   C4A  902   5.729   1.144   3.431
   76DOPC   C1B  903   5.500   1.068   5.126
   76DOPC   D2B  904   5.463   1.417   4.753
   76DOPC   C3B  905   5.561   1.549   4.304
   76DOPC   C4B  906   5.639   1.695   3.842
   77DOPC   NC3  907   7.493   6.352   5.789
   77DOPC   PO4  908   7.219   6.581   5.601
   77DOPC   GL1  909   7.042   6.662   5.208
   77DOPC   GL2  910   6.748   6.671   5.279
   77DOPC   C1A  911   7.115   6.611   4.752
   77DOPC   D2A  912   7.153   6.593   4.236
   77DOPC   C3A  913   7.222   6.380   3.799
   77DOPC   C4A  914   7.269   6.340   3.299
   77DOPC   C1B  915   6.621   6.612   4.851
   77DOPC   D2B  916   6.722   6.381   4.433
   77DOPC   C3B  917   6.746   6.429   3.975
   77DOPC   C4B  918   6.886   6.729   3.600
   78DOPC   NC3  919   0.463   3.220   5.563
   78DOPC   PO4  920   0.189   2.965   5.692
   78DOPC   GL1  921   0.249   2.831   5.294
   78DOPC   GL2  922   0.364   2.578   5.434
   78DOPC   C1A  923   0.344   2.854   4.849
   78DOPC   D2A  924   0.574   2.910   4.391
   78DOPC   C3A  925   0.561   3.008   3.920
   78DOPC   C4A  926   0.570   2.961   3.412
   78DOPC   C1B  927   0.603   2.470   5.081
   78DOPC   D2B  928   0.525   2.403   4.600
   78DOPC   C3B  929   0.768   2.417   4.202
   78DOPC   C4B  930   0.681   2.549   3.736
   79DOPC   NC3  931   9.869   0.354   5.876
   79DOPC   PO4  932   9.907   0.730   5.725
   79DOPC   GL1  933   9.869   0.661   5.311
   79DOPC   GL2  934   9.911   0.354   5.323
   79DOPC   C1A  935   9.532   0.607   5.027
   79DOPC   D2A  936   9.631   0.526   4.550
   79DOPC   C3A  937   9.414   0.523   4.142
   79DOPC   C4A  938   9.149   0.493   3.718
   79DOPC   C1B  939   9.767   0.148   4.912
   79DOPC   D2B  940   9.662   0.017   4.419
   79DOPC   C3B  941   9.640   0.114   3.945
   79DOPC   C4B  942   9.564   0.310   3.478
   80DOPC   NC3  943   1.380   7.685   6.176
   80DOPC   PO4  944   1.433   7.448   5.855
   80DOPC   GL1  945   1.550   7.543   5.397
   80DOPC   GL2  946   1.686   7.256   5.431
   80DOPC   C1A  947   1.573   7.525   4.931
   80DOPC   D2A  948   1.774   7.430   4.461
   80DOPC   C3A  949   1.785   7.514   3.980
   80DOPC   C4A  950   1.689   7.599   3.487
   80DOPC   C1B  951   1.882   7.089   5.036
   80DOPC   D2B  952   2.036   6.961   4.562
   80DOPC   C3B  953   2.144   7.091   4.112
   80DOPC   C4B  954   2.342   7.226   3.666
   81DOPC   NC3  955  19.740   9.182   5.735
   81DOPC   PO4  956   0.053   9.121   5.500
   81DOPC   GL1  957  19.813   8.978   5.147
   81DOPC   GL2  958  19.572   9.081   5.315
   81DOPC   C1A  959  19.607   9.010   4.730
   81DOPC   D2A  960  19.395   9.219   4.307
   81DOPC   C3A  961  19.414   9.431   3.878
   81DOPC   C4A  962  19.507   9.328   3.400
   81DOPC   C1B  963  19.349   8.773   5.120
   81DOPC   D2B  964  19.370   8.484   4.713
   81DOPC   C3B  965  19.475   8.702   4.288
   81DOPC   C4B  966  19.571   8.938   3.854
   82DOPC   NC3  967   2.634   6.990   5.820
   82DOPC   PO4  968   2.799   6.639   5.715
   82DOPC   GL1  969   2.702   6.672   5.318
   82DOPC   GL2  970   2.584   6.960   5.346
   82DOPC   C1A  971   2.703   6.714   4.882
   82DOPC   D2A  972   2.588   6.785   4.395
   82DOPC   C3A  973   2.614   6.866   3.927
   82DOPC   C4A  974   2.813   7.029   3.484
   82DOPC   C1B  975   2.414   7.140   4.953
   82DOPC   D2B  976   2.305   7.387   4.527
   82DOPC   C3B  977   2.542   7.418   4.125
   82DOPC   C4B  978   2.831   7.472   3.740
   83DOPC   NC3  979   3.413   6.891   6.171
   83DOPC   PO4  980   3.132   6.994   5.903
   83DOPC   GL1  981   3.010   6.987   5.483
   83DOPC   GL2  982   3.165   6.748   5.421
   83DOPC   C1A  983   2.918   7.141   5.071
   83DOPC   D2A  984   2.801   7.202   4.580
   83DOPC   C3A  985   2.996   7.146   4.143
   83DOPC   C4A  986   3.283   7.224   3.739
   83DOPC   C1B  987   3.331   6.847   5.029
   83DOPC   D2B  988   3.293   7.026   4.558
   83DOPC   C3B  989   3.499   7.283   4.221
   83DOPC   C4B  990   3.816   7.231   3.844
   84DOPC   NC3  991  18.661   8.120   5.803
   84DOPC   PO4  992  18.985   7.888   5.854
   84DOPC   GL1  993  18.857   7.857   5.445
   84DOPC   GL2  994  18.943   8.169   5.410
   84DOPC   C1A  995  18.889   7.688   5.043
   84DOPC   D2A  996  18.931   7.549   4.568
   84DOPC   C3A  997  19.087   7.789   4.202
   84DOPC   C4A  998  19.368   7.930   3.832
   84DOPC   C1B  999  18.930   8.290   4.969
   84DOPC   D2B 1000  18.924   8.388   4.468
   84DOPC   C3B 1001  19.012   8.343   3.997
   84DOPC   C4B 1002  19.053   8.541   3.535
   85DOPC   NC3 1003  14.405   5.705   5.883
   85DOPC   PO4 1004  14.143   5.839   5.615
   85DOPC   GL1 1005  14.311   5.785   5.250
   85DOPC   GL2 1006  14.602   5.744   5.337
   85DOPC   C1A 1007  14.243   5.753   4.819
   85DOPC   D2A 1008  14.215   5.685   4.328
   85DOPC   C3A 1009  14.267   6.051   4.034
   85DOPC   C4A 1010  14.233   6.458   3.737
   85DOPC   C1B 1011  14.801   5.756   4.930
   85DOPC   D2B 1012  14.937   5.724   4.431
   85DOPC   C3B 1013  14.654   5.676   4.049
   85DOPC   C4B 1014  14.204   5.572   3.822
   86DOPC   NC3 1015   5.348   5.037   5.874
   86DOPC   PO4 1016   5.369   5.195   5.504
   86DOPC   GL1 1017   4.986   5.208   5.247
   86DOPC   GL2 1018   5.214   5.138   5.023
   86DOPC   C1A 1019   4.742   5.238   4.868
   86DOPC   D2A 1020   4.727   5.121   4.370
   86DOPC   C3A 1021   5.114   5.068   4.095
   86DOPC   C4A 1022   5.375   5.403   3.830
   86DOPC   C1B 1023   5.107   4.890   4.650
   86DOPC   D2B 1024   4.863   4.637   4.276
   86DOPC   C3B 1025   4.841   4.673   3.803
   86DOPC   C4B 1026   4.919   4.743   3.307
   87DOPC   NC3 1027   3.599   0.674   5.792
   87DOPC   PO4 1028   3.216   0.550   5.803
   87DOPC   GL1 1029   3.001   0.649   5.402
   87DOPC   GL2 1030   3.180   0.905   5.437
   87DOPC   C1A 1031   3.003   0.773   4.970
   87DOPC   D2A 1032   3.171   1.039   4.570
   87DOPC   C3A 1033   3.319   1.059   4.124
   87DOPC   C4A 1034   3.177   0.977   3.660
   87DOPC   C1B 1035   3.359   1.120   5.064
   87DOPC   D2B 1036   3.616   1.318   4.662
   87DOPC   C3B 1037   3.656   1.440   4.196
   87DOPC   C4B 1038   3.551   1.324   3.715
   88DOPC   NC3 1039   9.920   9.018   6.081
   88DOPC   PO4 1040   9.914   8.833   5.737
   88DOPC   GL1 1041  10.060   8.935   5.388
   88DOPC   GL2 1042  10.042   9.212   5.419
   88DOPC   C1A 1043  10.083   8.849   4.964
   88DOPC   D2A 1044  10.185   8.771   4.473
   88DOPC   C3A 1045  10.051   8.669   4.023
   88DOPC   C4A 1046   9.900   8.522   3.565
   88DOPC   C1B 1047   9.814   9.268   5.055
   88DOPC   D2B 1048   9.815   9.095   4.592
   88DOPC   C3B 1049   9.734   9.066   4.124
   88DOPC   C4B 1050   9.702   9.002   3.638
   89DOPC   NC3 1051  11.613   1.195   5.868
   89DOPC   PO4 1052  11.370   0.908   5.739
   89DOPC   GL1 1053  11.170   0.930   5.362
   89DOPC   GL2 1054  11.084   1.224   5.414
   89DOPC   C1A 1055  11.388   0.927   4.968
   89DOPC   D2A 1056  11.511   0.884   4.496
   89DOPC   C3A 1057  11.316   0.939   4.086
   89DOPC   C4A 1058  11.105   0.939   3.645
   89DOPC   C1B 1059  11.387   1.408   5.149
   89DOPC   D2B 1060  11.618   1.354   4.707
   89DOPC   C3B 1061  11.501   1.383   4.252
   89DOPC   C4B 1062  11.285   1.463   3.799
   90DOPC   NC3 1063  10.715   1.178   6.065
   90DOPC   PO4 1064  10.876   0.949   5.778
   90DOPC   GL1 1065  10.733   0.968   5.377
   90DOPC   GL2 1066  10.461   0.940   5.401
   90DOPC   C1A 1067  10.905   1.106   4.978
   90DOPC   D2A 1068  11.065   1.199   4.499
   90DOPC   C3A 1069  10.897   1.231   4.047
   90DOPC   C4A 1070  10.721   1.250   3.574
   90DOPC   C1B 1071  10.387   0.946   4.973
   90DOPC   D2B 1072  10.220   1.104   4.526
   90DOPC   C3B 1073  10.148   0.955   4.077
   90DOPC   C4B 1074  10.309   0.750   3.658
   91DOPC   NC3 1075   2.145   5.095   5.859
   91DOPC   PO4 1076   2.311   4.779   5.683
   91DOPC   GL1 1077   2.286   5.064   5.333
   91DOPC   GL2 1078   1.990   5.047   5.398
   91DOPC   C1A 1079   2.217   5.145   4.895
   91DOPC   D2A 1080   2.130   5.170   4.390
   91DOPC   C3A 1081   2.238   4.983   3.975
   91DOPC   C4A 1082   2.200   4.960   3.488
   91DOPC   C1B 1083   1.819   4.802   5.060
   91DOPC   D2B 1084   1.609   4.635   4.631
   91DOPC   C3B 1085   1.776   4.826   4.234
   91DOPC   C4B 1086   1.760   5.009   3.777
   92DOPC   NC3 1087   8.898   5.157   5.943
   92DOPC   PO4 1088   9.061   4.826   5.779
   92DOPC   GL1 1089   8.830   4.623   5.409
   92DOPC   GL2 1090   8.631   4.846   5.456
   92DOPC   C1A 1091   8.829   4.551   4.952
   92DOPC   D2A 1092   8.785   4.507   4.429
   92DOPC   C3A 1093   8.679   4.512   3.939
   92DOPC   C4A 1094   8.738   4.460   3.436
   92DOPC   C1B 1095   8.433   4.881   5.047
   92DOPC   D2B 1096   8.248   4.859   4.563
   92DOPC   C3B 1097   8.372   4.880   4.101
   92DOPC   C4B 1098   8.505   4.899   3.611
   93DOPC   NC3 1099   2.663   5.006   5.965
   93DOPC   PO4 1100   2.615   5.222   5.636
   93DOPC   GL1 1101   2.698   4.878   5.412
   93DOPC   GL2 1102   2.909   5.054   5.269
   93DOPC   C1A 1103   2.471   4.733   5.064
   93DOPC   D2A 1104   2.406   4.793   4.574
   93DOPC   C3A 1105   2.718   4.913   4.239
   93DOPC   C4A 1106   2.941   5.085   3.821
   93DOPC   C1B 1107   2.779   5.055   4.849
   93DOPC   D2B 1108   2.564   5.373   4.566
   93DOPC   C3B 1109   2.552   5.373   4.111
   93DOPC   C4B 1110   2.502   5.357   3.641
   94DOPC   NC3 1111   7.467   6.012   6.386
   94DOPC   PO4 1112   7.311   5.917   6.022
   94DOPC   GL1 1113   7.073   6.115   5.626
   94DOPC   GL2 1114   7.105   5.795   5.575
   94DOPC   C1A 1115   6.918   6.196   5.198
   94DOPC   D2A 1116   7.042   6.092   4.716
   94DOPC   C3A 1117   7.102   6.061   4.238
   94DOPC   C4A 1118   7.178   5.835   3.794
   94DOPC   C1B 1119   7.033   5.592   5.161
   94DOPC   D2B 1120   7.061   5.550   4.653
   94DOPC   C3B 1121   6.964   5.493   4.189
   94DOPC   C4B 1122   6.859   5.390   3.712
   95DOPC   NC3 1123   3.486   9.203   6.111
   95DOPC   PO4 1124   3.794   9.263   5.869
   95DOPC   GL1 1125   3.621   9.299   5.469
   95DOPC   GL2 1126   3.438   9.052   5.524
   95DOPC   C1A 1127   3.561   9.366   5.024
   95DOPC   D2A 1128   3.601   9.232   4.543
   95DOPC   C3A 1129   3.762   9.310   4.111
   95DOPC   C4A 1130   3.988   9.453   3.696
   95DOPC   C1B 1131   3.249   8.966   5.105
   95DOPC   D2B 1132   3.233   8.876   4.597
   95DOPC   C3B 1133   3.155   8.843   4.123
   95DOPC   C4B 1134   3.007   8.735   3.655
   96DOPC   NC3 1135   5.119   0.361   5.941
   96DOPC   PO4 1136   5.431   0.567   5.802
   96DOPC   GL1 1137   5.300   0.490   5.401
   96DOPC   GL2 1138   5.092   0.286   5.475
   96DOPC   C1A 1139   5.157   0.602   4.986
   96DOPC   D2A 1140   5.174   0.645   4.486
   96DOPC   C3A 1141   5.056   0.457   4.067
   96DOPC   C4A 1142   4.930   0.582   3.614
   96DOPC   C1B 1143   4.766   0.279   5.155
   96DOPC   D2B 1144   4.469   0.303   4.740
   96DOPC   C3B 1145   4.597   0.270   4.279
   96DOPC   C4B 1146   4.687   0.140   3.796
   97DOPC   NC3 1147   6.554   2.248   5.927
   97DOPC   PO4 1148   6.887   2.020   5.937
   97DOPC   GL1 1149   6.955   2.007   5.487
   97DOPC   GL2 1150   6.789   2.251   5.528
   97DOPC   C1A 1151   6.840   1.919   5.068
   97DOPC   D2A 1152   6.674   2.017   4.600
   97DOPC   C3A 1153   6.637   1.887   4.134
   97DOPC   C4A 1154   6.520   1.723   3.672
   97DOPC   C1B 1155   6.449   2.248   5.233
   97DOPC   D2B 1156   6.293   2.318   4.758
   97DOPC   C3B 1157   6.290   2.212   4.303
   97DOPC   C4B 1158   6.340   2.197   3.809
   98DOPC   NC3 1159  11.043   5.922   5.820
   98DOPC   PO4 1160  11.178   6.300   5.841
   98DOPC   GL1 1161  11.550   6.337   5.607
   98DOPC   GL2 1162  11.453   6.037   5.510
   98DOPC   C1A 1163  11.634   6.417   5.174
   98DOPC   D2A 1164  11.656   6.494   4.662
   98DOPC   C3A 1165  11.661   6.371   4.188
   98DOPC   C4A 1166  11.673   6.231   3.701
   98DOPC   C1B 1167  11.464   5.958   5.050
   98DOPC   D2B 1168  11.486   6.016   4.532
   98DOPC   C3B 1169  11.489   5.865   4.057
   98DOPC   C4B 1170  11.387   5.644   3.599
   99DOPC   NC3 1171   3.667   5.908   6.007
   99DOPC   PO4 1172   3.585   6.104   5.667
   99DOPC   GL1 1173   3.721   6.025   5.240
   99DOPC   GL2 1174   3.817   5.755   5.337
   99DOPC   C1A 1175   3.605   5.923   4.805
   99DOPC   D2A 1176   3.611   5.839   4.304
   99DOPC   C3A 1177   3.362   5.846   3.907
   99DOPC   C4A 1178   2.951   6.079   3.748
   99DOPC   C1B 1179   3.702   5.465   5.015
   99DOPC   D2B 1180   3.612   5.181   4.600
   99DOPC   C3B 1181   3.753   5.366   4.186
   99DOPC   C4B 1182   3.848   5.611   3.767
  100DOPC   NC3 1183   5.097   5.436   6.205
  100DOPC   PO4 1184   5.026   5.422   5.817
  100DOPC   GL1 1185   4.946   5.631   5.466
  100DOPC   GL2 1186   4.877   5.904   5.602
  100DOPC   C1A 1187   5.095   5.597   5.032
  100DOPC   D2A 1188   5.123   5.408   4.569
  100DOPC   C3A 1189   4.991   5.560   4.145
  100DOPC   C4A 1190   4.939   5.676   3.674
  100DOPC   C1B 1191   4.930   6.046   5.198
  100DOPC   D2B 1192   4.949   5.988   4.685
  100DOPC   C3B 1193   4.893   6.067   4.214
  100DOPC   C4B 1194   4.715   6.122   3.738
  101DOPC   NC3 1195  15.102   4.077   5.849
  101DOPC   PO4 1196  14.899   3.769   5.682
  101DOPC   GL1 1197  14.919   3.982   5.348
  101DOPC   GL2 1198  15.197   4.091   5.377
  101DOPC   C1A 1199  14.738   4.122   4.973
  101DOPC   D2A 1200  14.540   4.111   4.508
  101DOPC   C3A 1201  14.667   4.286   4.080
  101DOPC   C4A 1202  14.436   4.538   3.703
  101DOPC   C1B 1203  15.318   4.222   4.963
  101DOPC   D2B 1204  15.451   4.272   4.473
  101DOPC   C3B 1205  15.178   4.458   4.128
  101DOPC   C4B 1206  14.909   4.686   3.775
  102DOPC   NC3 1207   5.702   7.344   5.868
  102DOPC   PO4 1208   5.481   7.076   5.675
  102DOPC   GL1 1209   5.757   7.130   5.360
  102DOPC   GL2 1210   5.742   7.450   5.412
  102DOPC   C1A 1211   5.790   7.002   4.935
  102DOPC   D2A 1212   5.842   6.894   4.455
  102DOPC   C3A 1213   5.831   7.103   4.043
  102DOPC   C4A 1214   5.603   7.286   3.647
  102DOPC   C1B 1215   5.616   7.636   5.022
  102DOPC   D2B 1216   5.448   7.754   4.556
  102DOPC   C3B 1217   5.625   7.568   4.166
  102DOPC   C4B 1218   5.992   7.568   3.823
  103DOPC   NC3 1219  13.510   3.294   5.575
  103DOPC   PO4 1220  13.733   3.609   5.664
  103DOPC   GL1 1221  13.927   3.660   5.271
  103DOPC   GL2 1222  13.907   3.360   5.268
  103DOPC   C1A 1223  13.745   3.808   4.888
  103DOPC   D2A 1224  13.541   3.819   4.428
  103DOPC   C3A 1225  13.434   3.684   3.977
  103DOPC   C4A 1226  13.276   3.582   3.508
  103DOPC   C1B 1227  13.565   3.351   4.972
  103DOPC   D2B 1228  13.303   3.280   4.525
  103DOPC   C3B 1229  13.428   3.178   4.063
  103DOPC   C4B 1230  13.289   3.051   3.585
  104DOPC   NC3 1231   3.526   0.174   5.908
  104DOPC   PO4 1232   3.294   0.057   5.601
  104DOPC   GL1 1233   3.592   0.118   5.288
  104DOPC   GL2 1234   3.687   0.327   5.473
  104DOPC   C1A 1235   3.562   0.235   4.852
  104DOPC   D2A 1236   3.482   0.156   4.382
  104DOPC   C3A 1237   3.364   0.197   3.946
  104DOPC   C4A 1238   3.323  10.000   3.504
  104DOPC   C1B 1239   3.506   0.617   5.200
  104DOPC   D2B 1240   3.582   0.778   4.736
  104DOPC   C3B 1241   3.575   0.653   4.291
  104DOPC   C4B 1242   3.603   0.676   3.802
  105DOPC   NC3 1243   6.965   3.018   5.755
  105DOPC   PO4 1244   6.824   2.663   5.871
  105DOPC   GL1 1245   6.713   2.670   5.470
  105DOPC   GL2 1246   6.422   2.656   5.479
  105DOPC   C1A 1247   6.901   2.435   5.125
  105DOPC   D2A 1248   7.138   2.187   4.751
  105DOPC   C3A 1249   7.049   2.143   4.290
  105DOPC   C4A 1250   6.978   2.242   3.809
  105DOPC   C1B 1251   6.496   2.728   5.030
  105DOPC   D2B 1252   6.770   2.564   4.625
  105DOPC   C3B 1253   6.679   2.560   4.156
  105DOPC   C4B 1254   6.502   2.855   3.790
  106DOPC   NC3 1255  16.828   1.028   5.773
  106DOPC   PO4 1256  16.549   1.310   5.751
  106DOPC   GL1 1257  16.387   1.176   5.361
  106DOPC   GL2 1258  16.647   1.009   5.338
  106DOPC   C1A 1259  16.324   1.154   4.924
  106DOPC   D2A 1260  16.352   1.044   4.434
  106DOPC   C3A 1261  16.533   1.299   4.093
  106DOPC   C4A 1262  16.689   1.557   3.716
  106DOPC   C1B 1263  16.684   0.788   4.960
  106DOPC   D2B 1264  16.668   0.626   4.491
  106DOPC   C3B 1265  16.673   0.787   4.054
  106DOPC   C4B 1266  16.612   1.027   3.637
  107DOPC   NC3 1267  15.260   0.449   5.943
  107DOPC   PO4 1268  14.869   0.457   5.819
  107DOPC   GL1 1269  14.691   0.258   5.423
  107DOPC   GL2 1270  14.990   0.249   5.372
  107DOPC   C1A 1271  14.507   0.436   5.036
  107DOPC   D2A 1272  14.476   0.460   4.526
  107DOPC   C3A 1273  14.594   0.227   4.126
  107DOPC   C4A 1274  14.723   9.891   3.774
  107DOPC   C1B 1275  15.021   0.492   5.001
  107DOPC   D2B 1276  14.947   0.716   4.562
  107DOPC   C3B 1277  15.102   0.927   4.164
  107DOPC   C4B 1278  15.357   1.030   3.746
  108DOPC   NC3 1279   2.366   9.956   5.877
  108DOPC   PO4 1280   2.091   9.905   5.590
  108DOPC   GL1 1281   2.283   0.084   5.216
  108DOPC   GL2 1282   1.980   0.087   5.163
  108DOPC   C1A 1283   2.323   9.923   4.805
  108DOPC   D2A 1284   2.117   9.594   4.474
  108DOPC   C3A 1285   2.136   9.562   4.006
  108DOPC   C4A 1286   2.478   9.853   3.814
  108DOPC   C1B 1287   1.905   9.667   4.995
  108DOPC   D2B 1288   1.788   9.264   4.716
  108DOPC   C3B 1289   1.707   9.287   4.246
  108DOPC   C4B 1290   1.710   9.395   3.752
  109DOPC   NC3 1291   0.893   2.574   5.960
  109DOPC   PO4 1292   0.792   2.935   5.791
  109DOPC   GL1 1293   0.704   2.862   5.375
  109DOPC   GL2 1294   0.837   2.572   5.460
  109DOPC   C1A 1295   0.775   3.098   4.990
  109DOPC   D2A 1296   0.931   3.266   4.524
  109DOPC   C3A 1297   1.047   3.090   4.081
  109DOPC   C4A 1298   1.333   3.080   3.658
  109DOPC   C1B 1299   1.129   2.404   5.164
  109DOPC   D2B 1300   1.426   2.260   4.777
  109DOPC   C3B 1301   1.335   2.217   4.314
  109DOPC   C4B 1302   1.165   2.300   3.856
  110DOPC   NC3 1303  14.904   5.963   6.046
  110DOPC   PO4 1304  14.993   6.348   6.052
  110DOPC   GL1 1305  15.081   6.285   5.605
  110DOPC   GL2 1306  15.066   5.983   5.622
  110DOPC   C1A 1307  15.046   6.173   5.170
  110DOPC   D2A 1308  15.124   6.114   4.689
  110DOPC   C3A 1309  15.108   6.168   4.223
  110DOPC   C4A 1310  15.193   6.013   3.756
  110DOPC   C1B 1311  15.220   5.710   5.290
  110DOPC   D2B 1312  15.534   5.546   4.919
  110DOPC   C3B 1313  15.418   5.528   4.453
  110DOPC   C4B 1314  15.205   5.544   3.999
  111DOPC   NC3 1315   8.002   4.358   5.976
  111DOPC   PO4 1316   7.680   4.545   5.839
  111DOPC   GL1 1317   7.763   4.432   5.462
  111DOPC   GL2 1318   7.999   4.259   5.507
  111DOPC   C1A 1319   7.621   4.270   5.083
  111DOPC   D2A 1320   7.628   4.019   4.673
  111DOPC   C3A 1321   7.389   4.158   4.295
  111DOPC   C4A 1322   7.520   4.338   3.857
  111DOPC   C1B 1323   8.106   4.131   5.088
  111DOPC   D2B 1324   8.113   4.020   4.586
  111DOPC   C3B 1325   7.872   4.154   4.192
  111DOPC   C4B 1326   7.947   4.055   3.702
  112DOPC   NC3 1327   5.080   9.548   5.907
  112DOPC   PO4 1328   5.116   9.235   5.649
  112DOPC   GL1 1329   5.389   9.370   5.349
  112DOPC   GL2 1330   5.210   9.626   5.393
  112DOPC   C1A 1331   5.343   9.467   4.950
  112DOPC   D2A 1332   5.296   9.753   4.559
  112DOPC   C3A 1333   5.328   9.556   4.147
  112DOPC   C4A 1334   5.293   9.298   3.740
  112DOPC   C1B 1335   5.106   9.907   5.058
  112DOPC   D2B 1336   4.978   0.164   4.633
  112DOPC   C3B 1337   4.970   9.940   4.205
  112DOPC   C4B 1338   4.965   9.696   3.766
  113DOPC   NC3 1339  11.580   2.251   5.872
  113DOPC   PO4 1340  11.944   2.401   5.769
  113DOPC   GL1 1341  11.789   2.497   5.384
  113DOPC   GL2 1342  11.523   2.349   5.400
  113DOPC   C1A 1343  11.789   2.693   4.993
  113DOPC   D2A 1344  11.640   2.579   4.530
  113DOPC   C3A 1345  11.676   2.686   4.066
  113DOPC   C4A 1346  11.637   2.823   3.598
  113DOPC   C1B 1347  11.329   2.476   5.008
  113DOPC   D2B 1348  11.112   2.609   4.557
  113DOPC   C3B 1349  11.172   2.556   4.079
  113DOPC   C4B 1350  11.230   2.507   3.579
  114DOPC   NC3 1351   0.369   4.766   5.980
  114DOPC   PO4 1352   0.197   4.966   5.687
  114DOPC   GL1 1353   0.342   4.943   5.311
  114DOPC   GL2 1354   0.508   4.695   5.353
  114DOPC   C1A 1355   0.324   4.948   4.875
  114DOPC   D2A 1356   0.339   4.937   4.380
  114DOPC   C3A 1357   0.386   5.120   3.953
  114DOPC   C4A 1358   0.480   5.204   3.477
  114DOPC   C1B 1359   0.714   4.621   4.973
  114DOPC   D2B 1360   0.818   4.691   4.482
  114DOPC   C3B 1361   0.625   4.664   4.043
  114DOPC   C4B 1362   0.322   4.731   3.643
  115DOPC   NC3 1363  17.059   9.623   5.720
  115DOPC   PO4 1364  17.425   9.785   5.772
  115DOPC   GL1 1365  17.469   0.030   5.381
  115DOPC   GL2 1366  17.182   0.017   5.404
  115DOPC   C1A 1367  17.353   0.037   4.943
  115DOPC   D2A 1368  17.200   9.848   4.490
  115DOPC   C3A 1369  17.329   9.746   4.044
  115DOPC   C4A 1370  17.488   9.412   3.724
  115DOPC   C1B 1371  17.132   9.631   5.194
  115DOPC   D2B 1372  17.105   9.373   4.764
  115DOPC   C3B 1373  17.088   9.377   4.292
  115DOPC   C4B 1374  16.969   9.379   3.804
  116DOPC   NC3 1375   4.577   3.342   5.876
  116DOPC   PO4 1376   4.266   3.102   5.801
  116DOPC   GL1 1377   4.149   3.146   5.431
  116DOPC   GL2 1378   3.887   2.970   5.435
  116DOPC   C1A 1379   4.264   3.372   5.055
  116DOPC   D2A 1380   4.291   3.388   4.549
  116DOPC   C3A 1381   4.417   3.529   4.106
  116DOPC   C4A 1382   4.532   3.807   3.700
  116DOPC   C1B 1383   3.786   3.135   5.037
  116DOPC   D2B 1384   3.764   3.419   4.614
  116DOPC   C3B 1385   3.905   3.455   4.160
  116DOPC   C4B 1386   4.080   3.507   3.691
  117DOPC   NC3 1387  18.653   7.481   5.937
  117DOPC   PO4 1388  18.469   7.595   5.599
  117DOPC   GL1 1389  18.664   7.311   5.311
  117DOPC   GL2 1390  18.918   7.340   5.490
  117DOPC   C1A 1391  18.667   7.219   4.855
  117DOPC   D2A 1392  18.694   7.146   4.344
  117DOPC   C3A 1393  18.626   7.313   3.890
  117DOPC   C4A 1394  18.427   7.342   3.422
  117DOPC   C1B 1395  19.272   7.385   5.207
  117DOPC   D2B 1396  19.421   7.508   4.742
  117DOPC   C3B 1397  19.312   7.325   4.305
  117DOPC   C4B 1398  19.161   7.180   3.848
  118DOPC   NC3 1399  15.904   9.156   6.077
  118DOPC   PO4 1400  16.029   9.288   5.711
  118DOPC   GL1 1401  15.876   9.284   5.305
  118DOPC   GL2 1402  15.576   9.308   5.379
  118DOPC   C1A 1403  15.844   9.470   4.903
  118DOPC   D2A 1404  15.842   9.688   4.456
  118DOPC   C3A 1405  15.888   9.446   4.055
  118DOPC   C4A 1406  15.952   9.165   3.648
  118DOPC   C1B 1407  15.359   9.318   4.966
  118DOPC   D2B 1408  15.353   9.342   4.445
  118DOPC   C3B 1409  15.538   9.064   4.090
  118DOPC   C4B 1410  15.690   8.721   3.753
  119DOPC   NC3 1411   4.117   0.115   6.109
  119DOPC   PO4 1412   4.005   0.352   5.814
  119DOPC   GL1 1413   4.127   0.167   5.466
  119DOPC   GL2 1414   4.415   0.288   5.515
  119DOPC   C1A 1415   4.012   0.214   5.054
  119DOPC   D2A 1416   3.987   0.200   4.553
  119DOPC   C3A 1417   3.881   0.292   4.103
  119DOPC   C4A 1418   4.078   0.473   3.701
  119DOPC   C1B 1419   4.345   0.579   5.186
  119DOPC   D2B 1420   4.108   0.700   4.751
  119DOPC   C3B 1421   4.217   0.599   4.304
  119DOPC   C4B 1422   4.514   0.614   3.906
  120DOPC   NC3 1423  14.113   0.060   6.024
  120DOPC   PO4 1424  13.765   0.064   5.813
  120DOPC   GL1 1425  13.840   9.860   5.432
  120DOPC   GL2 1426  14.114   0.008   5.474
  120DOPC   C1A 1427  13.823   9.801   4.981
  120DOPC   D2A 1428  13.922   9.759   4.480
  120DOPC   C3A 1429  13.898   9.549   4.042
  120DOPC   C4A 1430  13.993   9.198   3.681
  120DOPC   C1B 1431  14.293   9.980   5.062
  120DOPC   D2B 1432  14.444   9.954   4.582
  120DOPC   C3B 1433  14.352   9.770   4.169
  120DOPC   C4B 1434  14.298   9.597   3.721
  121DOPC   NC3 1435   6.587   4.230   5.706
  121DOPC   PO4 1436   6.921   4.022   5.631
  121DOPC   GL1 1437   6.848   4.010   5.169
  121DOPC   GL2 1438   6.614   4.210   5.244
  121DOPC   C1A 1439   6.669   4.123   4.769
  121DOPC   D2A 1440   6.417   4.398   4.434
  121DOPC   C3A 1441   6.512   4.286   3.990
  121DOPC   C4A 1442   6.627   4.357   3.523
  121DOPC   C1B 1443   6.366   4.477   4.954
  121DOPC   D2B 1444   6.040   4.754   4.676
  121DOPC   C3B 1445   6.076   4.827   4.212
  121DOPC   C4B 1446   6.241   4.698   3.760
  122DOPC   NC3 1447   6.796   5.922   5.938
  122DOPC   PO4 1448   6.715   5.590   5.749
  122DOPC   GL1 1449   6.701   5.838   5.397
  122DOPC   GL2 1450   6.553   6.062   5.541
  122DOPC   C1A 1451   6.640   5.856   4.942
  122DOPC   D2A 1452   6.686   5.850   4.436
  122DOPC   C3A 1453   6.704   5.891   3.961
  122DOPC   C4A 1454   6.590   5.772   3.490
  122DOPC   C1B 1455   6.236   5.859   5.298
  122DOPC   D2B 1456   6.138   5.690   4.848
  122DOPC   C3B 1457   6.208   5.716   4.392
  122DOPC   C4B 1458   6.252   5.699   3.892
  123DOPC   NC3 1459  14.220   1.713   5.991
  123DOPC   PO4 1460  14.216   2.040   5.780
  123DOPC   GL1 1461  14.490   2.044   5.459
  123DOPC   GL2 1462  14.385   2.319   5.401
  123DOPC   C1A 1463  14.411   1.845   5.085
  123DOPC   D2A 1464  14.295   1.754   4.611
  123DOPC   C3A 1465  14.524   1.760   4.200
  123DOPC   C4A 1466  14.759   1.771   3.765
  123DOPC   C1B 1467  14.014   2.187   5.196
  123DOPC   D2B 1468  13.631   2.095   4.899
  123DOPC   C3B 1469  13.917   2.110   4.531
  123DOPC   C4B 1470  14.178   2.112   4.115
  124DOPC   NC3 1471  15.013   2.051   5.955
  124DOPC   PO4 1472  14.673   2.241   5.852
  124DOPC   GL1 1473  14.827   2.336   5.433
  124DOPC   GL2 1474  14.946   2.055   5.485
  124DOPC   C1A 1475  14.657   2.311   5.017
  124DOPC   D2A 1476  14.585   2.191   4.527
  124DOPC   C3A 1477  14.648   2.294   4.062
  124DOPC   C4A 1478  14.826   2.296   3.596
  124DOPC   C1B 1479  14.926   1.878   5.084
  124DOPC   D2B 1480  14.877   1.782   4.589
  124DOPC   C3B 1481  15.033   1.957   4.167
  124DOPC   C4B 1482  15.249   2.023   3.714
  125DOPC   NC3 1483  11.452   6.720   5.930
  125DOPC   PO4 1484  11.161   6.836   5.688
  125DOPC   GL1 1485  11.301   6.658   5.371
  125DOPC   GL2 1486  11.171   6.382   5.355
  125DOPC   C1A 1487  11.349   6.824   4.962
  125DOPC   D2A 1488  11.449   6.934   4.472
  125DOPC   C3A 1489  11.323   6.795   4.023
  125DOPC   C4A 1490  11.294   6.610   3.551
  125DOPC   C1B 1491  11.187   6.359   4.900
  125DOPC   D2B 1492  11.204   6.437   4.398
  125DOPC   C3B 1493  11.221   6.280   3.944
  125DOPC   C4B 1494  11.233   6.110   3.463
  126DOPC   NC3 1495  11.325   7.527   5.844
  126DOPC   PO4 1496  11.539   7.191   5.782
  126DOPC   GL1 1497  11.526   7.143   5.326
  126DOPC   GL2 1498  11.506   7.462   5.358
  126DOPC   C1A 1499  11.604   7.246   4.889
  126DOPC   D2A 1500  11.519   7.481   4.461
  126DOPC   C3A 1501  11.495   7.302   4.032
  126DOPC   C4A 1502  11.395   7.113   3.593
  126DOPC   C1B 1503  11.384   7.677   4.966
  126DOPC   D2B 1504  11.088   7.756   4.569
  126DOPC   C3B 1505  11.119   7.688   4.100
  126DOPC   C4B 1506  11.199   7.636   3.623
  127DOPC   NC3 1507  17.102   8.157   5.723
  127DOPC   PO4 1508  17.490   8.098   5.626
  127DOPC   GL1 1509  17.492   7.707   5.405
  127DOPC   GL2 1510  17.188   7.789   5.446
  127DOPC   C1A 1511  17.547   7.741   4.954
  127DOPC   D2A 1512  17.398   7.879   4.481
  127DOPC   C3A 1513  17.515   8.087   4.059
  127DOPC   C4A 1514  17.632   8.414   3.694
  127DOPC   C1B 1515  17.075   7.941   5.053
  127DOPC   D2B 1516  16.893   7.994   4.591
  127DOPC   C3B 1517  17.012   7.949   4.143
  127DOPC   C4B 1518  17.010   7.959   3.654
  128DOPC   NC3 1519  12.815   2.954   5.964
  128DOPC   PO4 1520  13.161   3.143   5.905
  128DOPC   GL1 1521  13.037   3.308   5.527
  128DOPC   GL2 1522  12.742   3.254   5.595
  128DOPC   C1A 1523  13.103   3.159   5.103
  128DOPC   D2A 1524  12.950   2.859   4.702
  128DOPC   C3A 1525  12.954   3.015   4.253
  128DOPC   C4A 1526  13.003   3.361   3.890
  128DOPC   C1B 1527  12.624   3.191   5.177
  128DOPC   D2B 1528  12.766   3.335   4.703
  128DOPC   C3B 1529  12.642   3.424   4.250
  128DOPC   C4B 1530  12.550   3.540   3.776
  129DOPC   NC3 1531  16.657   9.880   5.982
  129DOPC   PO4 1532  16.931   0.098   5.775
  129DOPC   GL1 1533  16.743   0.061   5.370
  129DOPC   GL2 1534  16.705   9.761   5.436
  129DOPC   C1A 1535  16.821   9.925   4.944
  129DOPC   D2A 1536  16.731   9.645   4.549
  129DOPC   C3A 1537  16.805   9.776   4.107
  129DOPC   C4A 1538  17.013   0.008   3.731
  129DOPC   C1B 1539  16.659   9.469   5.076
  129DOPC   D2B 1540  16.637   9.153   4.683
  129DOPC   C3B 1541  16.606   9.243   4.222
  129DOPC   C4B 1542  16.454   9.268   3.757
  130DOPC   NC3 1543   7.862   3.204   5.712
  130DOPC   PO4 1544   7.458   3.216   5.687
  130DOPC   GL1 1545   7.599   3.456   5.404
  130DOPC   GL2 1546   7.776   3.650   5.540
  130DOPC   C1A 1547   7.857   3.249   5.130
  130DOPC   D2A 1548   7.990   2.971   4.744
  130DOPC   C3A 1549   8.020   3.189   4.345
  130DOPC   C4A 1550   7.904   3.209   3.875
  130DOPC   C1B 1551   7.795   3.753   5.109
  130DOPC   D2B 1552   7.880   3.542   4.669
  130DOPC   C3B 1553   7.861   3.652   4.211
  130DOPC   C4B 1554   7.528   3.811   3.881
  131DOPC   NC3 1555  16.643   8.012   5.902
  131DOPC   PO4 1556  16.826   7.676   5.767
  131DOPC   GL1 1557  16.764   7.782   5.356
  131DOPC   GL2 1558  16.742   8.069   5.428
  131DOPC   C1A 1559  16.659   7.664   4.931
  131DOPC   D2A 1560  16.613   7.572   4.432
  131DOPC   C3A 1561  16.660   7.642   3.964
  131DOPC   C4A 1562  16.604   7.645   3.462
  131DOPC   C1B 1563  16.609   8.181   5.024
  131DOPC   D2B 1564  16.397   8.079   4.581
  131DOPC   C3B 1565  16.571   8.215   4.157
  131DOPC   C4B 1566  16.699   8.387   3.700
  132DOPC   NC3 1567  18.137   0.998   6.172
  132DOPC   PO4 1568  18.037   0.873   5.799
  132DOPC   GL1 1569  18.181   1.103   5.464
  132DOPC   GL2 1570  18.053   1.327   5.616
  132DOPC   C1A 1571  18.147   1.070   5.016
  132DOPC   D2A 1572  18.285   0.908   4.555
  132DOPC   C3A 1573  18.348   1.065   4.106
  132DOPC   C4A 1574  18.248   1.354   3.700
  132DOPC   C1B 1575  17.828   1.422   5.259
  132DOPC   D2B 1576  17.831   1.388   4.754
  132DOPC   C3B 1577  17.923   1.233   4.315
  132DOPC   C4B 1578  17.903   1.025   3.842
  133DOPC   NC3 1579  17.399   2.671   5.827
  133DOPC   PO4 1580  17.237   2.926   5.578
  133DOPC   GL1 1581  17.173   2.563   5.360
  133DOPC   GL2 1582  17.404   2.395   5.452
  133DOPC   C1A 1583  17.256   2.620   4.938
  133DOPC   D2A 1584  17.462   2.637   4.488
  133DOPC   C3A 1585  17.370   2.778   4.064
  133DOPC   C4A 1586  17.426   3.093   3.705
  133DOPC   C1B 1587  17.674   2.352   5.078
  133DOPC   D2B 1588  17.872   2.332   4.594
  133DOPC   C3B 1589  17.815   2.485   4.143
  133DOPC   C4B 1590  17.719   2.631   3.683
  134DOPC   NC3 1591  16.689   4.245   5.767
  134DOPC   PO4 1592  16.751   3.850   5.779
  134DOPC   GL1 1593  16.784   3.852   5.377
  134DOPC   GL2 1594  16.884   4.142   5.355
  134DOPC   C1A 1595  16.519   3.812   5.015
  134DOPC   D2A 1596  16.221   3.788   4.604
  134DOPC   C3A 1597  16.394   3.845   4.152
  134DOPC   C4A 1598  16.704   3.757   3.757
  134DOPC   C1B 1599  16.686   4.287   4.972
  134DOPC   D2B 1600  16.404   4.262   4.546
  134DOPC   C3B 1601  16.183   4.438   4.162
  134DOPC   C4B 1602  16.011   4.581   3.718
  135DOPC   NC3 1603   2.748   1.361   6.165
  135DOPC   PO4 1604   2.640   1.131   5.848
  135DOPC   GL1 1605   2.728   1.012   5.445
  135DOPC   GL2 1606   2.512   0.797   5.423
  135DOPC   C1A 1607   2.769   1.223   5.044
  135DOPC   D2A 1608   2.736   1.333   4.553
  135DOPC   C3A 1609   2.653   1.571   4.147
  135DOPC   C4A 1610   2.733   1.861   3.746
  135DOPC   C1B 1611   2.491   0.793   4.975
  135DOPC   D2B 1612   2.715   0.807   4.512
  135DOPC   C3B 1613   2.810   1.065   4.115
  135DOPC   C4B 1614   2.832   1.351   3.700
  136DOPC   NC3 1615  14.418   9.443   5.916
  136DOPC   PO4 1616  14.074   9.611   5.780
  136DOPC   GL1 1617  14.209   9.590   5.365
  136DOPC   GL2 1618  14.427   9.389   5.446
  136DOPC   C1A 1619  14.079   9.347   5.026
  136DOPC   D2A 1620  14.020   9.021   4.642
  136DOPC   C3A 1621  14.088   9.105   4.191
  136DOPC   C4A 1622  14.466   9.141   3.889
  136DOPC   C1B 1623  14.539   9.103   5.111
  136DOPC   D2B 1624  14.532   8.837   4.683
  136DOPC   C3B 1625  14.407   8.728   4.248
  136DOPC   C4B 1626  14.148   8.728   3.824
  137DOPC   NC3 1627  14.970   7.757   6.039
  137DOPC   PO4 1628  14.987   7.360   6.006
  137DOPC   GL1 1629  14.989   7.492   5.597
  137DOPC   GL2 1630  15.141   7.737   5.605
  137DOPC   C1A 1631  14.888   7.456   5.167
  137DOPC   D2A 1632  14.894   7.450   4.649
  137DOPC   C3A 1633  14.857   7.692   4.229
  137DOPC   C4A 1634  14.890   7.957   3.800
  137DOPC   C1B 1635  15.160   7.875   5.174
  137DOPC   D2B 1636  15.074   7.923   4.675
  137DOPC   C3B 1637  15.209   8.092   4.254
  137DOPC   C4B 1638  15.459   8.231   3.836
  138DOPC   NC3 1639  17.816   5.803   5.718
  138DOPC   PO4 1640  17.701   5.423   5.795
  138DOPC   GL1 1641  17.910   5.472   5.386
  138DOPC   GL2 1642  17.617   5.583   5.316
  138DOPC   C1A 1643  17.991   5.747   5.058
  138DOPC   D2A 1644  18.057   5.964   4.617
  138DOPC   C3A 1645  17.868   5.778   4.222
  138DOPC   C4A 1646  17.567   5.583   3.865
  138DOPC   C1B 1647  17.483   5.711   4.882
  138DOPC   D2B 1648  17.221   5.726   4.432
  138DOPC   C3B 1649  17.107   5.803   3.970
  138DOPC   C4B 1650  17.167   5.988   3.507
  139DOPC   NC3 1651  19.847   4.709   5.969
  139DOPC   PO4 1652  19.726   4.798   5.604
  139DOPC   GL1 1653  19.513   5.188   5.501
  139DOPC   GL2 1654  19.774   5.229   5.364
  139DOPC   C1A 1655  19.257   5.103   5.165
  139DOPC   D2A 1656  19.425   5.004   4.702
  139DOPC   C3A 1657  19.476   4.939   4.243
  139DOPC   C4A 1658  19.524   5.144   3.799
  139DOPC   C1B 1659  19.832   4.963   4.989
  139DOPC   D2B 1660  19.882   4.758   4.517
  139DOPC   C3B 1661  19.942   4.849   4.036
  139DOPC   C4B 1662  -0.002   5.143   3.619
  140DOPC   NC3 1663  12.679   1.047   5.869
  140DOPC   PO4 1664  12.355   0.897   5.687
  140DOPC   GL1 1665  12.432   0.958   5.313
  140DOPC   GL2 1666  12.658   1.188   5.402
  140DOPC   C1A 1667  12.358   0.867   4.872
  140DOPC   D2A 1668  12.370   0.840   4.345
  140DOPC   C3A 1669  12.460   0.922   3.880
  140DOPC   C4A 1670  12.463   1.010   3.379
  140DOPC   C1B 1671  12.871   1.369   5.030
  140DOPC   D2B 1672  12.869   1.551   4.557
  140DOPC   C3B 1673  12.837   1.395   4.117
  140DOPC   C4B 1674  12.845   1.232   3.657
  141DOPC   NC3 1675   4.948   6.933   5.754
  141DOPC   PO4 1676   5.233   6.710   5.931
  141DOPC   GL1 1677   5.345   6.669   5.497
  141DOPC   GL2 1678   5.082   6.535   5.480
  141DOPC   C1A 1679   5.350   6.816   5.080
  141DOPC   D2A 1680   5.244   6.830   4.574
  141DOPC   C3A 1681   5.284   6.967   4.121
  141DOPC   C4A 1682   5.190   6.997   3.638
  141DOPC   C1B 1683   4.932   6.524   5.067
  141DOPC   D2B 1684   4.764   6.485   4.602
  141DOPC   C3B 1685   4.931   6.581   4.178
  141DOPC   C4B 1686   5.109   6.470   3.742
  142DOPC   NC3 1687  10.618   7.868   6.227
  142DOPC   PO4 1688  10.772   7.622   5.941
  142DOPC   GL1 1689  10.777   7.898   5.573
  142DOPC   GL2 1690  11.080   7.818   5.567
  142DOPC   C1A 1691  10.649   7.968   5.143
  142DOPC   D2A 1692  10.641   8.007   4.635
  142DOPC   C3A 1693  10.456   7.915   4.196
  142DOPC   C4A 1694  10.344   7.827   3.711
  142DOPC   C1B 1695  11.048   7.484   5.279
  142DOPC   D2B 1696  11.106   7.267   4.820
  142DOPC   C3B 1697  11.065   7.245   4.347
  142DOPC   C4B 1698  10.979   7.215   3.855
  143DOPC   NC3 1699   8.640   8.801   5.868
  143DOPC   PO4 1700   8.905   9.061   6.014
  143DOPC   GL1 1701   8.714   9.182   5.595
  143DOPC   GL2 1702   8.941   8.991   5.519
  143DOPC   C1A 1703   8.595   9.075   5.173
  143DOPC   D2A 1704   8.478   9.001   4.695
  143DOPC   C3A 1705   8.628   9.048   4.261
  143DOPC   C4A 1706   8.843   9.163   3.840
  143DOPC   C1B 1707   9.143   9.105   5.127
  143DOPC   D2B 1708   9.336   9.234   4.678
  143DOPC   C3B 1709   9.232   9.135   4.226
  143DOPC   C4B 1710   9.242   8.841   3.815
  144DOPC   NC3 1711  19.816   9.568   6.071
  144DOPC   PO4 1712  19.553   9.689   5.797
  144DOPC   GL1 1713  19.763   9.524   5.416
  144DOPC   GL2 1714  19.742   9.845   5.399
  144DOPC   C1A 1715  19.833   9.406   4.973
  144DOPC   D2A 1716  19.892   9.380   4.482
  144DOPC   C3A 1717  19.874   9.584   4.064
  144DOPC   C4A 1718  19.792   9.766   3.606
  144DOPC   C1B 1719  19.702   9.890   4.965
  144DOPC   D2B 1720  19.682   9.900   4.451
  144DOPC   C3B 1721  19.494   9.947   4.007
  144DOPC   C4B 1722  19.316   9.980   3.539
  145DOPC   NC3 1723  16.402   7.275   5.843
  145DOPC   PO4 1724  16.780   7.148   5.815
  145DOPC   GL1 1725  16.812   7.331   5.428
  145DOPC   GL2 1726  16.539   7.429   5.441
  145DOPC   C1A 1727  16.783   7.177   5.022
  145DOPC   D2A 1728  16.725   7.060   4.541
  145DOPC   C3A 1729  16.702   7.131   4.075
  145DOPC   C4A 1730  16.562   7.146   3.606
  145DOPC   C1B 1731  16.303   7.210   5.152
  145DOPC   D2B 1732  16.199   7.083   4.671
  145DOPC   C3B 1733  16.235   7.274   4.230
  145DOPC   C4B 1734  16.216   7.516   3.786
  146DOPC   NC3 1735   2.503   2.199   5.651
  146DOPC   PO4 1736   2.903   2.259   5.661
  146DOPC   GL1 1737   3.036   1.989   5.327
  146DOPC   GL2 1738   2.724   1.966   5.294
  146DOPC   C1A 1739   3.151   1.870   4.899
  146DOPC   D2A 1740   3.198   1.562   4.490
  146DOPC   C3A 1741   3.172   1.548   4.021
  146DOPC   C4A 1742   3.193   1.692   3.544
  146DOPC   C1B 1743   2.733   2.247   4.958
  146DOPC   D2B 1744   2.768   2.562   4.575
  146DOPC   C3B 1745   2.697   2.453   4.125
  146DOPC   C4B 1746   2.528   2.347   3.671
  147DOPC   NC3 1747  19.077   4.301   6.045
  147DOPC   PO4 1748  19.418   4.462   5.913
  147DOPC   GL1 1749  19.324   4.625   5.478
  147DOPC   GL2 1750  19.153   4.378   5.480
  147DOPC   C1A 1751  19.438   4.603   5.049
  147DOPC   D2A 1752  19.348   4.520   4.563
  147DOPC   C3A 1753  19.122   4.451   4.155
  147DOPC   C4A 1754  19.054   4.153   3.759
  147DOPC   C1B 1755  19.022   4.298   5.045
  147DOPC   D2B 1756  18.836   4.296   4.563
  147DOPC   C3B 1757  18.708   4.117   4.127
  147DOPC   C4B 1758  18.632   3.814   3.713
  148DOPC   NC3 1759  17.797   1.710   5.695
  148DOPC   PO4 1760  18.015   2.040   5.711
  148DOPC   GL1 1761  18.335   2.003   5.443
  148DOPC   GL2 1762  18.269   1.697   5.467
  148DOPC   C1A 1763  18.262   2.088   5.020
  148DOPC   D2A 1764  18.185   1.896   4.563
  148DOPC   C3A 1765  18.158   2.111   4.160
  148DOPC   C4A 1766  18.157   2.373   3.741
  148DOPC   C1B 1767  18.239   1.587   5.038
  148DOPC   D2B 1768  18.326   1.412   4.577
  148DOPC   C3B 1769  18.258   1.598   4.150
  148DOPC   C4B 1770  18.224   1.858   3.726
  149DOPC   NC3 1771  19.835   7.493   5.940
  149DOPC   PO4 1772  19.773   7.091   5.901
  149DOPC   GL1 1773  19.734   7.126   5.448
  149DOPC   GL2 1774  19.654   7.425   5.514
  149DOPC   C1A 1775  19.801   7.310   5.049
  149DOPC   D2A 1776  19.981   7.583   4.667
  149DOPC   C3A 1777   0.041   7.491   4.209
  149DOPC   C4A 1778   0.071   7.379   3.733
  149DOPC   C1B 1779  19.657   7.759   5.194
  149DOPC   D2B 1780  19.678   7.990   4.741
  149DOPC   C3B 1781  19.608   7.746   4.329
  149DOPC   C4B 1782  19.595   7.481   3.907
  150DOPC   NC3 1783  13.079   1.984   5.753
  150DOPC   PO4 1784  12.693   2.090   5.817
  150DOPC   GL1 1785  12.693   2.348   5.454
  150DOPC   GL2 1786  12.979   2.299   5.425
  150DOPC   C1A 1787  12.625   2.166   5.069
  150DOPC   D2A 1788  12.763   2.048   4.617
  150DOPC   C3A 1789  12.542   2.138   4.225
  150DOPC   C4A 1790  12.341   2.167   3.780
  150DOPC   C1B 1791  13.131   2.101   5.051
  150DOPC   D2B 1792  13.257   1.922   4.581
  150DOPC   C3B 1793  13.006   1.883   4.167
  150DOPC   C4B 1794  12.759   1.783   3.736
  151DOPC   NC3 1795  14.475   4.012   5.829
  151DOPC   PO4 1796  14.704   4.281   5.626
  151DOPC   GL1 1797  14.460   4.004   5.348
  151DOPC   GL2 1798  14.280   4.231   5.405
  151DOPC   C1A 1799  14.251   3.938   4.957
  151DOPC   D2A 1800  14.086   3.833   4.485
  151DOPC   C3A 1801  14.310   3.884   4.071
  151DOPC   C4A 1802  14.591   3.986   3.669
  151DOPC   C1B 1803  14.320   4.455   5.022
  151DOPC   D2B 1804  14.252   4.559   4.533
  151DOPC   C3B 1805  14.170   4.379   4.105
  151DOPC   C4B 1806  14.117   4.152   3.658
  152DOPC   NC3 1807   2.491   4.321   5.888
  152DOPC   PO4 1808   2.789   4.557   5.763
  152DOPC   GL1 1809   2.666   4.424   5.359
  152DOPC   GL2 1810   2.381   4.392   5.436
  152DOPC   C1A 1811   2.648   4.281   4.924
  152DOPC   D2A 1812   2.726   4.430   4.449
  152DOPC   C3A 1813   2.729   4.219   4.038
  152DOPC   C4A 1814   2.754   4.037   3.586
  152DOPC   C1B 1815   2.121   4.374   5.078
  152DOPC   D2B 1816   2.054   4.418   4.579
  152DOPC   C3B 1817   2.267   4.483   4.158
  152DOPC   C4B 1818   2.476   4.545   3.705
  153DOPC   NC3 1819  14.581   7.327   5.716
  153DOPC   PO4 1820  14.574   7.728   5.698
  153DOPC   GL1 1821  14.227   7.759   5.387
  153DOPC   GL2 1822  14.398   7.537   5.270
  153DOPC   C1A 1823  14.179   8.066   5.033
  153DOPC   D2A 1824  14.191   8.382   4.619
  153DOPC   C3A 1825  14.083   8.341   4.152
  153DOPC   C4A 1826  13.933   8.286   3.673
  153DOPC   C1B 1827  14.584   7.781   4.927
  153DOPC   D2B 1828  14.583   8.040   4.496
  153DOPC   C3B 1829  14.410   7.916   4.067
  153DOPC   C4B 1830  14.205   7.840   3.618
  154DOPC   NC3 1831   6.507   7.242   5.848
  154DOPC   PO4 1832   6.453   7.619   5.710
  154DOPC   GL1 1833   6.444   7.400   5.356
  154DOPC   GL2 1834   6.184   7.251   5.475
  154DOPC   C1A 1835   6.525   7.456   4.906
  154DOPC   D2A 1836   6.587   7.403   4.405
  154DOPC   C3A 1837   6.365   7.189   4.040
  154DOPC   C4A 1838   6.519   7.095   3.579
  154DOPC   C1B 1839   6.053   7.394   5.079
  154DOPC   D2B 1840   5.853   7.405   4.617
  154DOPC   C3B 1841   6.140   7.581   4.295
  154DOPC   C4B 1842   6.506   7.680   3.960
  155DOPC   NC3 1843   6.070   0.221   5.885
  155DOPC   PO4 1844   5.859   9.993   5.633
  155DOPC   GL1 1845   5.995   0.290   5.375
  155DOPC   GL2 1846   5.766   0.442   5.499
  155DOPC   C1A 1847   6.092   0.397   4.952
  155DOPC   D2A 1848   6.274   0.692   4.591
  155DOPC   C3A 1849   6.106   0.763   4.163
  155DOPC   C4A 1850   6.091   0.864   3.679
  155DOPC   C1B 1851   5.646   0.572   5.098
  155DOPC   D2B 1852   5.702   0.588   4.590
  155DOPC   C3B 1853   5.572   0.652   4.133
  155DOPC   C4B 1854   5.439   0.502   3.671
  156DOPC   NC3 1855  16.930   3.369   5.918
  156DOPC   PO4 1856  16.818   3.235   5.557
  156DOPC   GL1 1857  16.800   3.452   5.200
  156DOPC   GL2 1858  16.483   3.454   5.299
  156DOPC   C1A 1859  16.897   3.423   4.754
  156DOPC   D2A 1860  16.981   3.467   4.239
  156DOPC   C3A 1861  16.946   3.289   3.787
  156DOPC   C4A 1862  16.930   3.195   3.295
  156DOPC   C1B 1863  16.387   3.346   4.883
  156DOPC   D2B 1864  16.511   3.421   4.401
  156DOPC   C3B 1865  16.446   3.351   3.941
  156DOPC   C4B 1866  16.222   3.622   3.586
  157DOPC   NC3 1867  12.227   3.924   6.105
  157DOPC   PO4 1868  12.542   4.020   5.872
  157DOPC   GL1 1869  12.641   3.738   5.502
  157DOPC   GL2 1870  12.368   3.860   5.430
  157DOPC   C1A 1871  12.703   3.690   5.065
  157DOPC   D2A 1872  12.560   3.798   4.590
  157DOPC   C3A 1873  12.554   3.924   4.126
  157DOPC   C4A 1874  12.540   4.033   3.620
  157DOPC   C1B 1875  12.266   3.970   4.995
  157DOPC   D2B 1876  12.022   3.878   4.551
  157DOPC   C3B 1877  11.862   3.990   4.119
  157DOPC   C4B 1878  11.712   4.081   3.656
  158DOPC   NC3 1879  10.357   9.080   5.803
  158DOPC   PO4 1880  10.448   8.765   5.580
  158DOPC   GL1 1881  10.468   9.051   5.294
  158DOPC   GL2 1882  10.643   9.239   5.466
  158DOPC   C1A 1883  10.570   8.897   4.883
  158DOPC   D2A 1884  10.713   8.851   4.409
  158DOPC   C3A 1885  10.525   8.841   3.980
  158DOPC   C4A 1886  10.212   8.924   3.594
  158DOPC   C1B 1887  10.849   9.286   5.093
  158DOPC   D2B 1888  10.765   9.337   4.600
  158DOPC   C3B 1889  10.696   9.301   4.134
  158DOPC   C4B 1890  10.650   9.204   3.641
  159DOPC   NC3 1891  16.177   5.472   5.616
  159DOPC   PO4 1892  16.031   5.118   5.735
  159DOPC   GL1 1893  16.046   4.901   5.345
  159DOPC   GL2 1894  16.318   5.069   5.341
  159DOPC   C1A 1895  16.089   4.854   4.899
  159DOPC   D2A 1896  16.248   4.975   4.433
  159DOPC   C3A 1897  16.263   4.966   3.959
  159DOPC   C4A 1898  16.194   4.977   3.459
  159DOPC   C1B 1899  16.511   5.158   4.934
  159DOPC   D2B 1900  16.708   5.263   4.470
  159DOPC   C3B 1901  16.719   5.278   3.991
  159DOPC   C4B 1902  16.695   5.072   3.536
  160DOPC   NC3 1903   2.133   6.274   6.017
  160DOPC   PO4 1904   2.071   6.666   5.977
  160DOPC   GL1 1905   2.326   6.702   5.609
  160DOPC   GL2 1906   2.373   6.410   5.644
  160DOPC   C1A 1907   2.258   6.704   5.156
  160DOPC   D2A 1908   2.248   6.520   4.683
  160DOPC   C3A 1909   2.172   6.581   4.207
  160DOPC   C4A 1910   2.105   6.717   3.725
  160DOPC   C1B 1911   2.060   6.293   5.345
  160DOPC   D2B 1912   1.808   6.532   4.961
  160DOPC   C3B 1913   1.741   6.537   4.491
  160DOPC   C4B 1914   1.684   6.546   3.997
  161DOPC   NC3 1915  11.458   7.997   6.109
  161DOPC   PO4 1916  11.478   8.144   5.738
  161DOPC   GL1 1917  11.240   8.462   5.514
  161DOPC   GL2 1918  11.023   8.261   5.509
  161DOPC   C1A 1919  11.358   8.545   5.071
  161DOPC   D2A 1920  11.427   8.648   4.568
  161DOPC   C3A 1921  11.231   8.554   4.158
  161DOPC   C4A 1922  10.938   8.501   3.767
  161DOPC   C1B 1923  11.149   8.068   5.159
  161DOPC   D2B 1924  11.395   8.148   4.745
  161DOPC   C3B 1925  11.403   8.061   4.303
  161DOPC   C4B 1926  11.314   8.108   3.822
  162DOPC   NC3 1927  12.160   1.880   5.810
  162DOPC   PO4 1928  11.858   1.616   5.757
  162DOPC   GL1 1929  11.797   1.572   5.318
  162DOPC   GL2 1930  11.624   1.850   5.357
  162DOPC   C1A 1931  11.993   1.634   4.906
  162DOPC   D2A 1932  12.285   1.815   4.529
  162DOPC   C3A 1933  12.399   1.677   4.086
  162DOPC   C4A 1934  12.348   1.445   3.654
  162DOPC   C1B 1935  11.701   2.053   4.962
  162DOPC   D2B 1936  11.724   1.837   4.500
  162DOPC   C3B 1937  11.926   1.902   4.075
  162DOPC   C4B 1938  11.988   1.858   3.583
  163DOPC   NC3 1939  12.968   4.081   6.109
  163DOPC   PO4 1940  12.909   4.412   5.887
  163DOPC   GL1 1941  12.813   4.173   5.504
  163DOPC   GL2 1942  13.008   3.969   5.641
  163DOPC   C1A 1943  12.858   4.170   5.042
  163DOPC   D2A 1944  12.927   4.163   4.531
  163DOPC   C3A 1945  12.873   4.334   4.077
  163DOPC   C4A 1946  12.864   4.449   3.592
  163DOPC   C1B 1947  13.152   3.723   5.299
  163DOPC   D2B 1948  13.169   3.696   4.790
  163DOPC   C3B 1949  13.046   3.719   4.321
  163DOPC   C4B 1950  12.979   3.872   3.841
  164DOPC   NC3 1951   3.322   6.523   5.784
  164DOPC   PO4 1952   3.700   6.651   5.833
  164DOPC   GL1 1953   3.830   6.620   5.425
  164DOPC   GL2 1954   3.565   6.467   5.350
  164DOPC   C1A 1955   3.865   6.812   5.018
  164DOPC   D2A 1956   3.747   6.762   4.529
  164DOPC   C3A 1957   3.544   6.801   4.094
  164DOPC   C4A 1958   3.456   6.764   3.595
  164DOPC   C1B 1959   3.555   6.414   4.895
  164DOPC   D2B 1960   3.487   6.330   4.388
  164DOPC   C3B 1961   3.454   6.342   3.908
  164DOPC   C4B 1962   3.316   6.266   3.431
  165DOPC   NC3 1963  12.588   9.718   6.019
  165DOPC   PO4 1964  12.534   9.389   5.809
  165DOPC   GL1 1965  12.600   9.654   5.518
  165DOPC   GL2 1966  12.820   9.838   5.586
  165DOPC   C1A 1967  12.650   9.590   5.091
  165DOPC   D2A 1968  12.783   9.594   4.593
  165DOPC   C3A 1969  12.703   9.517   4.120
  165DOPC   C4A 1970  12.585   9.431   3.639
  165DOPC   C1B 1971  12.935   0.017   5.161
  165DOPC   D2B 1972  13.017   0.094   4.658
  165DOPC   C3B 1973  12.996   9.938   4.203
  165DOPC   C4B 1974  12.977   9.769   3.719
  166DOPC   NC3 1975  19.158   0.495   5.867
  166DOPC   PO4 1976  19.172   0.088   5.891
  166DOPC   GL1 1977  19.407   0.127   5.544
  166DOPC   GL2 1978  19.289   9.865   5.438
  166DOPC   C1A 1979  19.256   0.424   5.230
  166DOPC   D2A 1980  19.177   0.694   4.799
  166DOPC   C3A 1981  19.094   0.684   4.329
  166DOPC   C4A 1982  18.926   0.667   3.857
  166DOPC   C1B 1983  19.208   9.960   5.010
  166DOPC   D2B 1984  19.088   0.192   4.574
  166DOPC   C3B 1985  18.926   0.211   4.131
  166DOPC   C4B 1986  18.704   0.211   3.679
  167DOPC   NC3 1987   9.828   1.119   6.102
  167DOPC   PO4 1988  10.206   1.199   5.986
  167DOPC   GL1 1989  10.154   1.235   5.535
  167DOPC   GL2 1990   9.861   1.190   5.625
  167DOPC   C1A 1991  10.048   1.310   5.095
  167DOPC   D2A 1992   9.843   1.447   4.639
  167DOPC   C3A 1993  10.029   1.446   4.196
  167DOPC   C4A 1994  10.277   1.460   3.760
  167DOPC   C1B 1995   9.632   1.079   5.248
  167DOPC   D2B 1996   9.804   0.954   4.791
  167DOPC   C3B 1997   9.687   1.022   4.337
  167DOPC   C4B 1998   9.542   1.149   3.884
  168DOPC   NC3 1999  14.109   7.609   5.854
  168DOPC   PO4 2000  14.100   7.310   5.582
  168DOPC   GL1 2001  13.960   7.371   5.204
  168DOPC   GL2 2002  13.796   7.626   5.262
  168DOPC   C1A 2003  14.093   7.588   4.857
  168DOPC   D2A 2004  14.078   7.900   4.468
  168DOPC   C3A 2005  13.874   7.897   4.041
  168DOPC   C4A 2006  13.664   7.857   3.588
  168DOPC   C1B 2007  13.709   7.913   4.891
  168DOPC   D2B 2008  13.675   8.218   4.466
  168DOPC   C3B 2009  13.523   8.278   4.009
  168DOPC   C4B 2010  13.380   8.339   3.536
  169DOPC   NC3 2011  16.022   7.487   6.204
  169DOPC   PO4 2012  15.899   7.272   5.881
  169DOPC   GL1 2013  15.916   7.104   5.452
  169DOPC   GL2 2014  15.619   7.048   5.477
  169DOPC   C1A 2015  15.830   7.302   5.040
  169DOPC   D2A 2016  15.726   7.272   4.544
  169DOPC   C3A 2017  15.797   7.523   4.141
  169DOPC   C4A 2018  15.865   7.877   3.778
  169DOPC   C1B 2019  15.417   7.018   5.061
  169DOPC   D2B 2020  15.226   7.063   4.596
  169DOPC   C3B 2021  15.414   7.051   4.176
  169DOPC   C4B 2022  15.558   6.958   3.719
  170DOPC   NC3 2023  17.020   9.078   5.795
  170DOPC   PO4 2024  16.925   8.690   5.746
  170DOPC   GL1 2025  16.932   8.664   5.336
  170DOPC   GL2 2026  17.026   8.383   5.296
  170DOPC   C1A 2027  17.025   8.914   4.977
  170DOPC   D2A 2028  17.021   8.902   4.472
  170DOPC   C3A 2029  17.148   8.949   4.020
  170DOPC   C4A 2030  17.326   8.949   3.561
  170DOPC   C1B 2031  17.040   8.414   4.847
  170DOPC   D2B 2032  17.092   8.407   4.343
  170DOPC   C3B 2033  17.478   8.597   4.154
  170DOPC   C4B 2034  17.731   8.959   3.930
  171DOPC   NC3 2035   3.288   4.444   5.809
  171DOPC   PO4 2036   3.525   4.759   5.739
  171DOPC   GL1 2037   3.368   4.823   5.339
  171DOPC   GL2 2038   3.110   4.718   5.459
  171DOPC   C1A 2039   3.486   4.660   4.919
  171DOPC   D2A 2040   3.584   4.538   4.429
  171DOPC   C3A 2041   3.619   4.463   3.958
  171DOPC   C4A 2042   3.654   4.399   3.451
  171DOPC   C1B 2043   2.990   4.634   5.056
  171DOPC   D2B 2044   3.155   4.325   4.695
  171DOPC   C3B 2045   3.202   4.238   4.235
  171DOPC   C4B 2046   3.239   4.159   3.746
  172DOPC   NC3 2047   5.567   9.599   5.721
  172DOPC   PO4 2048   5.338   9.938   5.701
  172DOPC   GL1 2049   5.506   0.091   5.296
  172DOPC   GL2 2050   5.613   9.793   5.265
  172DOPC   C1A 2051   5.464   0.183   4.837
  172DOPC   D2A 2052   5.413   0.202   4.326
  172DOPC   C3A 2053   5.366   0.015   3.877
  172DOPC   C4A 2054   5.375   9.719   3.451
  172DOPC   C1B 2055   5.738   9.751   4.823
  172DOPC   D2B 2056   5.758   9.820   4.314
  172DOPC   C3B 2057   5.750   9.681   3.860
  172DOPC   C4B 2058   5.751   9.379   3.477
  173DOPC   NC3 2059  18.229   3.701   6.095
  173DOPC   PO4 2060  18.063   3.462   5.820
  173DOPC   GL1 2061  18.277   3.386   5.457
  173DOPC   GL2 2062  18.105   3.170   5.440
  173DOPC   C1A 2063  18.282   3.573   5.050
  173DOPC   D2A 2064  18.374   3.822   4.610
  173DOPC   C3A 2065  18.298   3.814   4.137
  173DOPC   C4A 2066  18.122   3.779   3.667
  173DOPC   C1B 2067  17.843   3.273   5.101
  173DOPC   D2B 2068  17.722   3.283   4.621
  173DOPC   C3B 2069  17.942   3.462   4.259
  173DOPC   C4B 2070  18.233   3.346   3.881
  174DOPC   NC3 2071   8.111   8.746   6.090
  174DOPC   PO4 2072   8.196   9.003   5.789
  174DOPC   GL1 2073   8.187   8.930   5.373
  174DOPC   GL2 2074   8.438   8.742   5.420
  174DOPC   C1A 2075   8.029   8.947   4.940
  174DOPC   D2A 2076   8.021   9.056   4.446
  174DOPC   C3A 2077   7.765   8.972   4.055
  174DOPC   C4A 2078   7.450   8.905   3.664
  174DOPC   C1B 2079   8.392   8.606   5.009
  174DOPC   D2B 2080   8.203   8.590   4.537
  174DOPC   C3B 2081   8.248   8.738   4.087
  174DOPC   C4B 2082   8.371   8.945   3.648
  175DOPC   NC3 2083   2.787   5.777   5.781
  175DOPC   PO4 2084   2.405   5.897   5.735
  175DOPC   GL1 2085   2.399   5.822   5.283
  175DOPC   GL2 2086   2.608   5.607   5.365
  175DOPC   C1A 2087   2.525   5.826   4.845
  175DOPC   D2A 2088   2.675   5.822   4.353
  175DOPC   C3A 2089   2.524   5.846   3.902
  175DOPC   C4A 2090   2.578   5.848   3.411
  175DOPC   C1B 2091   2.898   5.503   5.036
  175DOPC   D2B 2092   3.099   5.377   4.580
  175DOPC   C3B 2093   3.048   5.495   4.127
  175DOPC   C4B 2094   2.976   5.581   3.639
  176DOPC   NC3 2095  18.749   6.612   6.228
  176DOPC   PO4 2096  18.967   6.644   5.897
  176DOPC   GL1 2097  18.751   6.555   5.530
  176DOPC   GL2 2098  18.759   6.863   5.518
  176DOPC   C1A 2099  18.671   6.558   5.093
  176DOPC   D2A 2100  18.757   6.690   4.616
  176DOPC   C3A 2101  18.587   6.625   4.172
  176DOPC   C4A 2102  18.566   6.494   3.690
  176DOPC   C1B 2103  18.981   6.961   5.154
  176DOPC   D2B 2104  19.133   7.039   4.674
  176DOPC   C3B 2105  19.076   6.828   4.234
  176DOPC   C4B 2106  19.027   6.427   3.928
  177DOPC   NC3 2107   5.770   4.729   5.804
  177DOPC   PO4 2108   6.033   4.682   5.512
  177DOPC   GL1 2109   5.700   4.884   5.320
  177DOPC   GL2 2110   5.833   5.129   5.483
  177DOPC   C1A 2111   5.613   4.944   4.870
  177DOPC   D2A 2112   5.576   5.075   4.373
  177DOPC   C3A 2113   5.693   5.012   3.904
  177DOPC   C4A 2114   5.810   4.741   3.503
  177DOPC   C1B 2115   5.954   5.282   5.088
  177DOPC   D2B 2116   6.068   5.251   4.588
  177DOPC   C3B 2117   5.946   5.368   4.143
  177DOPC   C4B 2118   5.861   5.440   3.653
  178DOPC   NC3 2119   9.727   1.886   6.187
  178DOPC   PO4 2120   9.857   1.609   5.908
  178DOPC   GL1 2121   9.948   1.631   5.455
  178DOPC   GL2 2122   9.661   1.528   5.438
  178DOPC   C1A 2123  10.020   1.799   5.027
  178DOPC   D2A 2124  10.260   1.789   4.571
  178DOPC   C3A 2125  10.306   1.885   4.106
  178DOPC   C4A 2126  10.364   2.037   3.637
  178DOPC   C1B 2127   9.509   1.535   5.027
  178DOPC   D2B 2128   9.313   1.670   4.589
  178DOPC   C3B 2129   9.559   1.641   4.190
  178DOPC   C4B 2130   9.779   1.606   3.751
  179DOPC   NC3 2131  13.648   6.353   6.008
  179DOPC   PO4 2132  13.577   6.698   5.821
  179DOPC   GL1 2133  13.558   6.514   5.441
  179DOPC   GL2 2134  13.839   6.393   5.457
  179DOPC   C1A 2135  13.517   6.410   5.009
  179DOPC   D2A 2136  13.471   6.386   4.503
  179DOPC   C3A 2137  13.393   6.641   4.109
  179DOPC   C4A 2138  13.280   6.827   3.651
  179DOPC   C1B 2139  14.005   6.232   5.054
  179DOPC   D2B 2140  14.075   6.148   4.544
  179DOPC   C3B 2141  13.910   6.394   4.162
  179DOPC   C4B 2142  13.737   6.593   3.730
  180DOPC   NC3 2143   8.823   9.533   6.182
  180DOPC   PO4 2144   8.674   9.901   6.087
  180DOPC   GL1 2145   8.578   9.861   5.635
  180DOPC   GL2 2146   8.811   9.642   5.666
  180DOPC   C1A 2147   8.626   9.946   5.182
  180DOPC   D2A 2148   8.769   9.920   4.685
  180DOPC   C3A 2149   8.613   9.922   4.235
  180DOPC   C4A 2150   8.413   9.744   3.807
  180DOPC   C1B 2151   8.849   9.500   5.249
  180DOPC   D2B 2152   8.844   9.365   4.757
  180DOPC   C3B 2153   8.885   9.499   4.304
  180DOPC   C4B 2154   8.922   9.661   3.834
  181DOPC   NC3 2155  15.664   5.277   6.066
  181DOPC   PO4 2156  15.711   5.551   5.779
  181DOPC   GL1 2157  15.758   5.365   5.420
  181DOPC   GL2 2158  15.655   5.089   5.466
  181DOPC   C1A 2159  16.063   5.375   5.096
  181DOPC   D2A 2160  16.316   5.541   4.678
  181DOPC   C3A 2161  16.281   5.450   4.219
  181DOPC   C4A 2162  16.155   5.418   3.740
  181DOPC   C1B 2163  15.660   5.068   5.053
  181DOPC   D2B 2164  15.864   5.250   4.641
  181DOPC   C3B 2165  15.800   5.261   4.188
  181DOPC   C4B 2166  15.781   5.033   3.765
  182DOPC   NC3 2167   2.797   2.565   6.034
  182DOPC   PO4 2168   2.490   2.665   5.817
  182DOPC   GL1 2169   2.627   2.592   5.416
  182DOPC   GL2 2170   2.898   2.722   5.547
  182DOPC   C1A 2171   2.454   2.680   4.991
  182DOPC   D2A 2172   2.298   2.780   4.495
  182DOPC   C3A 2173   2.278   2.730   4.005
  182DOPC   C4A 2174   2.282   2.770   3.491
  182DOPC   C1B 2175   2.886   2.953   5.178
  182DOPC   D2B 2176   3.025   3.001   4.693
  182DOPC   C3B 2177   2.924   2.931   4.234
  182DOPC   C4B 2178   2.720   2.850   3.782
  183DOPC   NC3 2179   0.920   3.518   6.067
  183DOPC   PO4 2180   0.684   3.647   5.763
  183DOPC   GL1 2181   0.746   3.521   5.355
  183DOPC   GL2 2182   0.921   3.291   5.455
  183DOPC   C1A 2183   0.793   3.615   4.930
  183DOPC   D2A 2184   0.720   3.731   4.450
  183DOPC   C3A 2185   0.836   3.561   4.041
  183DOPC   C4A 2186   0.870   3.314   3.623
  183DOPC   C1B 2187   1.210   3.369   5.123
  183DOPC   D2B 2188   1.432   3.310   4.682
  183DOPC   C3B 2189   1.343   3.462   4.240
  183DOPC   C4B 2190   1.273   3.622   3.767
  184DOPC   NC3 2191  12.104   0.570   5.990
  184DOPC   PO4 2192  11.861   0.749   5.728
  184DOPC   GL1 2193  12.043   0.735   5.337
  184DOPC   GL2 2194  12.214   0.485   5.447
  184DOPC   C1A 2195  11.891   0.649   4.911
  184DOPC   D2A 2196  11.940   0.554   4.407
  184DOPC   C3A 2197  11.967   0.550   3.922
  184DOPC   C4A 2198  11.947   0.540   3.419
  184DOPC   C1B 2199  12.122   0.229   5.081
  184DOPC   D2B 2200  11.957   0.083   4.626
  184DOPC   C3B 2201  11.933   0.088   4.153
  184DOPC   C4B 2202  12.040   0.085   3.668
  185DOPC   NC3 2203   3.652   2.755   5.836
  185DOPC   PO4 2204   3.286   2.594   5.865
  185DOPC   GL1 2205   3.362   2.409   5.494
  185DOPC   GL2 2206   3.628   2.574   5.411
  185DOPC   C1A 2207   3.230   2.354   5.087
  185DOPC   D2A 2208   3.290   2.530   4.628
  185DOPC   C3A 2209   3.223   2.512   4.165
  185DOPC   C4A 2210   3.039   2.447   3.714
  185DOPC   C1B 2211   3.777   2.600   4.977
  185DOPC   D2B 2212   3.802   2.536   4.477
  185DOPC   C3B 2213   3.659   2.780   4.102
  185DOPC   C4B 2214   3.282   2.916   3.789
  186DOPC   NC3 2215   4.409   2.629   5.887
  186DOPC   PO4 2216   4.086   2.604   5.661
  186DOPC   GL1 2217   4.430   2.524   5.383
  186DOPC   GL2 2218   4.448   2.793   5.451
  186DOPC   C1A 2219   4.545   2.509   4.945
  186DOPC   D2A 2220   4.480   2.677   4.479
  186DOPC   C3A 2221   4.600   2.709   4.019
  186DOPC   C4A 2222   4.830   2.747   3.584
  186DOPC   C1B 2223   4.220   2.859   5.085
  186DOPC   D2B 2224   4.048   2.955   4.640
  186DOPC   C3B 2225   4.176   3.001   4.199
  186DOPC   C4B 2226   4.097   2.762   3.789
  187DOPC   NC3 2227   9.092   7.996   6.048
  187DOPC   PO4 2228   8.838   7.931   5.735
  187DOPC   GL1 2229   8.623   8.197   5.450
  187DOPC   GL2 2230   8.755   8.445   5.559
  187DOPC   C1A 2231   8.702   8.226   5.004
  187DOPC   D2A 2232   8.691   8.397   4.526
  187DOPC   C3A 2233   8.772   8.241   4.072
  187DOPC   C4A 2234   8.640   7.939   3.692
  187DOPC   C1B 2235   8.886   8.661   5.183
  187DOPC   D2B 2236   8.982   8.835   4.706
  187DOPC   C3B 2237   8.987   8.692   4.247
  187DOPC   C4B 2238   8.752   8.667   3.809
  188DOPC   NC3 2239  16.307   3.851   5.544
  188DOPC   PO4 2240  16.051   3.541   5.495
  188DOPC   GL1 2241  15.932   3.595   5.079
  188DOPC   GL2 2242  15.664   3.711   5.198
  188DOPC   C1A 2243  15.923   3.374   4.679
  188DOPC   D2A 2244  16.085   3.168   4.260
  188DOPC   C3A 2245  15.954   3.543   4.008
  188DOPC   C4A 2246  15.598   3.853   3.833
  188DOPC   C1B 2247  15.476   3.426   4.941
  188DOPC   D2B 2248  15.245   3.473   4.503
  188DOPC   C3B 2249  15.466   3.418   4.083
  188DOPC   C4B 2250  15.646   3.364   3.606
  189DOPC   NC3 2251   7.570   0.671   5.940
  189DOPC   PO4 2252   7.742   0.443   5.650
  189DOPC   GL1 2253   7.642   0.825   5.420
  189DOPC   GL2 2254   7.388   0.782   5.530
  189DOPC   C1A 2255   7.545   0.891   4.991
  189DOPC   D2A 2256   7.333   0.797   4.543
  189DOPC   C3A 2257   7.359   0.778   4.065
  189DOPC   C4A 2258   7.368   0.628   3.586
  189DOPC   C1B 2259   7.212   0.561   5.211
  189DOPC   D2B 2260   6.980   0.477   4.788
  189DOPC   C3B 2261   7.008   0.458   4.331
  189DOPC   C4B 2262   7.003   0.368   3.855
  190DOPC   NC3 2263   8.177   5.360   5.958
  190DOPC   PO4 2264   8.077   4.966   5.928
  190DOPC   GL1 2265   7.970   4.809   5.521
  190DOPC   GL2 2266   7.688   4.908   5.540
  190DOPC   C1A 2267   7.983   4.636   5.094
  190DOPC   D2A 2268   7.881   4.484   4.610
  190DOPC   C3A 2269   7.904   4.664   4.159
  190DOPC   C4A 2270   8.007   4.905   3.729
  190DOPC   C1B 2271   7.480   4.748   5.166
  190DOPC   D2B 2272   7.376   4.522   4.715
  190DOPC   C3B 2273   7.406   4.683   4.280
  190DOPC   C4B 2274   7.522   4.848   3.835
  191DOPC   NC3 2275  18.478   2.053   5.904
  191DOPC   PO4 2276  18.689   1.797   5.680
  191DOPC   GL1 2277  18.665   1.738   5.231
  191DOPC   GL2 2278  18.974   1.761   5.274
  191DOPC   C1A 2279  18.627   1.819   4.779
  191DOPC   D2A 2280  18.648   1.916   4.272
  191DOPC   C3A 2281  18.615   2.162   3.852
  191DOPC   C4A 2282  18.554   2.441   3.430
  191DOPC   C1B 2283  19.128   1.754   4.860
  191DOPC   D2B 2284  19.153   1.751   4.362
  191DOPC   C3B 2285  19.076   1.901   3.927
  191DOPC   C4B 2286  19.115   1.899   3.433
  192DOPC   NC3 2287  12.798   6.274   5.728
  192DOPC   PO4 2288  13.178   6.393   5.723
  192DOPC   GL1 2289  13.118   6.485   5.291
  192DOPC   GL2 2290  12.841   6.599   5.387
  192DOPC   C1A 2291  13.059   6.486   4.829
  192DOPC   D2A 2292  12.938   6.563   4.346
  192DOPC   C3A 2293  12.972   6.476   3.875
  192DOPC   C4A 2294  12.913   6.611   3.389
  192DOPC   C1B 2295  12.613   6.427   5.047
  192DOPC   D2B 2296  12.628   6.184   4.593
  192DOPC   C3B 2297  12.544   6.297   4.128
  192DOPC   C4B 2298  12.526   6.399   3.632
  193DOPC   NC3 2299   0.450   3.245   6.076
  193DOPC   PO4 2300   0.189   3.494   5.890
  193DOPC   GL1 2301   0.113   3.494   5.469
  193DOPC   GL2 2302   0.332   3.702   5.418
  193DOPC   C1A 2303   0.243   3.298   5.102
  193DOPC   D2A 2304   0.434   3.351   4.649
  193DOPC   C3A 2305   0.365   3.419   4.186
  193DOPC   C4A 2306   0.352   3.423   3.682
  193DOPC   C1B 2307   0.325   3.795   4.965
  193DOPC   D2B 2308   0.270   3.966   4.488
  193DOPC   C3B 2309   0.432   3.916   4.031
  193DOPC   C4B 2310   0.680   3.804   3.604
  194DOPC   NC3 2311  16.003   3.247   5.928
  194DOPC   PO4 2312  15.778   2.986   5.737
  194DOPC   GL1 2313  15.434   3.126   5.510
  194DOPC   GL2 2314  15.647   3.307   5.385
  194DOPC   C1A 2315  15.343   2.978   5.111
  194DOPC   D2A 2316  15.524   3.009   4.634
  194DOPC   C3A 2317  15.388   2.921   4.185
  194DOPC   C4A 2318  15.248   3.058   3.731
  194DOPC   C1B 2319  15.864   3.059   5.070
  194DOPC   D2B 2320  16.006   2.818   4.646
  194DOPC   C3B 2321  15.866   2.714   4.196
  194DOPC   C4B 2322  15.711   2.762   3.713
  195DOPC   NC3 2323  12.781   2.478   6.175
  195DOPC   PO4 2324  13.005   2.508   5.838
  195DOPC   GL1 2325  13.023   2.827   5.536
  195DOPC   GL2 2326  12.718   2.820   5.507
  195DOPC   C1A 2327  13.132   2.630   5.150
  195DOPC   D2A 2328  13.269   2.433   4.707
  195DOPC   C3A 2329  13.017   2.393   4.313
  195DOPC   C4A 2330  12.851   2.295   3.848
  195DOPC   C1B 2331  12.622   2.675   5.095
  195DOPC   D2B 2332  12.524   2.506   4.615
  195DOPC   C3B 2333  12.593   2.634   4.143
  195DOPC   C4B 2334  12.787   2.910   3.772
  196DOPC   NC3 2335   4.970   1.543   5.846
  196DOPC   PO4 2336   4.780   1.867   5.707
  196DOPC   GL1 2337   4.905   1.939   5.310
  196DOPC   GL2 2338   5.141   2.100   5.464
  196DOPC   C1A 2339   4.975   1.716   4.910
  196DOPC   D2A 2340   5.000   1.656   4.408
  196DOPC   C3A 2341   4.836   1.878   4.019
  196DOPC   C4A 2342   4.595   2.204   3.722
  196DOPC   C1B 2343   5.365   1.982   5.122
  196DOPC   D2B 2344   5.375   1.909   4.632
  196DOPC   C3B 2345   5.341   2.010   4.173
  196DOPC   C4B 2346   5.236   2.013   3.686
  197DOPC   NC3 2347   8.340   8.047   5.807
  197DOPC   PO4 2348   8.303   8.446   5.743
  197DOPC   GL1 2349   8.041   8.506   5.358
  197DOPC   GL2 2350   7.953   8.239   5.496
  197DOPC   C1A 2351   7.938   8.397   4.923
  197DOPC   D2A 2352   7.826   8.238   4.450
  197DOPC   C3A 2353   7.883   8.331   3.983
  197DOPC   C4A 2354   7.914   8.687   3.644
  197DOPC   C1B 2355   8.233   8.076   5.186
  197DOPC   D2B 2356   8.299   8.086   4.685
  197DOPC   C3B 2357   8.302   8.203   4.220
  197DOPC   C4B 2358   8.334   8.364   3.735
  198DOPC   NC3 2359  18.320   9.450   5.812
  198DOPC   PO4 2360  18.666   9.647   5.854
  198DOPC   GL1 2361  18.584   9.839   5.486
  198DOPC   GL2 2362  18.842   0.008   5.469
  198DOPC   C1A 2363  18.442   9.703   5.067
  198DOPC   D2A 2364  18.408   9.473   4.608
  198DOPC   C3A 2365  18.196   9.557   4.177
  198DOPC   C4A 2366  17.960   9.649   3.729
  198DOPC   C1B 2367  18.730   0.145   5.040
  198DOPC   D2B 2368  18.580   0.144   4.543
  198DOPC   C3B 2369  18.386   0.134   4.101
  198DOPC   C4B 2370  18.176   0.120   3.644
  199DOPC   NC3 2371   0.492   2.234   6.088
  199DOPC   PO4 2372   0.574   2.256   5.698
  199DOPC   GL1 2373   0.314   2.100   5.388
  199DOPC   GL2 2374   0.442   1.813   5.412
  199DOPC   C1A 2375   0.371   2.035   4.952
  199DOPC   D2A 2376   0.452   1.910   4.472
  199DOPC   C3A 2377   0.434   2.068   4.022
  199DOPC   C4A 2378   0.768   2.066   3.644
  199DOPC   C1B 2379   0.440   1.541   5.024
  199DOPC   D2B 2380   0.394   1.398   4.522
  199DOPC   C3B 2381   0.394   1.556   4.062
  199DOPC   C4B 2382   0.365   1.776   3.599
  200DOPC   NC3 2383  12.861   3.600   5.890
  200DOPC   PO4 2384  12.468   3.507   5.902
  200DOPC   GL1 2385  12.325   3.407   5.478
  200DOPC   GL2 2386  12.052   3.327   5.571
  200DOPC   C1A 2387  12.241   3.470   5.033
  200DOPC   D2A 2388  12.216   3.409   4.535
  200DOPC   C3A 2389  12.162   3.576   4.088
  200DOPC   C4A 2390  12.101   3.734   3.608
  200DOPC   C1B 2391  11.869   3.164   5.187
  200DOPC   D2B 2392  11.814   3.111   4.685
  200DOPC   C3B 2393  11.753   3.380   4.301
  200DOPC   C4B 2394  11.676   3.575   3.853
  201DOPC   NC3 2395   2.725   0.627   5.797
  201DOPC   PO4 2396   2.797   0.227   5.793
  201DOPC   GL1 2397   2.891   0.220   5.393
  201DOPC   GL2 2398   2.649   0.363   5.270
  201DOPC   C1A 2399   3.108   0.294   5.025
  201DOPC   D2A 2400   3.154   0.500   4.559
  201DOPC   C3A 2401   3.066   0.611   4.095
  201DOPC   C4A 2402   2.742   0.707   3.715
  201DOPC   C1B 2403   2.662   0.347   4.801
  201DOPC   D2B 2404   2.715   0.300   4.290
  201DOPC   C3B 2405   2.841   0.215   3.830
  201DOPC   C4B 2406   2.851   0.151   3.331
  202DOPC   NC3 2407   1.998   0.340   5.834
  202DOPC   PO4 2408   2.330   0.375   5.612
  202DOPC   GL1 2409   2.177   0.518   5.292
  202DOPC   GL2 2410   2.058   0.782   5.406
  202DOPC   C1A 2411   2.158   0.425   4.866
  202DOPC   D2A 2412   2.288   0.555   4.402
  202DOPC   C3A 2413   2.272   0.342   3.975
  202DOPC   C4A 2414   1.879   0.233   3.679
  202DOPC   C1B 2415   1.955   0.896   4.988
  202DOPC   D2B 2416   1.912   0.935   4.485
  202DOPC   C3B 2417   2.030   0.821   4.037
  202DOPC   C4B 2418   2.167   0.658   3.583
  203DOPC   NC3 2419  14.117   3.281   5.691
  203DOPC   PO4 2420  14.269   3.635   5.586
  203DOPC   GL1 2421  14.367   3.539   5.213
  203DOPC   GL2 2422  14.665   3.621   5.223
  203DOPC   C1A 2423  14.117   3.458   4.852
  203DOPC   D2A 2424  13.798   3.376   4.486
  203DOPC   C3A 2425  13.930   3.526   4.066
  203DOPC   C4A 2426  14.173   3.607   3.636
  203DOPC   C1B 2427  14.663   3.662   4.786
  203DOPC   D2B 2428  14.736   3.674   4.290
  203DOPC   C3B 2429  14.630   3.523   3.861
  203DOPC   C4B 2430  14.600   3.392   3.390
  204DOPC   NC3 2431   5.962   8.852   5.649
  204DOPC   PO4 2432   5.621   9.049   5.603
  204DOPC   GL1 2433   5.598   8.847   5.277
  204DOPC   GL2 2434   5.797   8.608   5.297
  204DOPC   C1A 2435   5.661   9.083   4.911
  204DOPC   D2A 2436   5.735   9.340   4.492
  204DOPC   C3A 2437   5.706   9.208   4.044
  204DOPC   C4A 2438   5.627   8.911   3.654
  204DOPC   C1B 2439   5.978   8.453   4.921
  204DOPC   D2B 2440   5.986   8.425   4.423
  204DOPC   C3B 2441   5.730   8.524   4.043
  204DOPC   C4B 2442   5.376   8.476   3.703
  205DOPC   NC3 2443  11.924   6.410   5.972
  205DOPC   PO4 2444  11.940   6.800   5.874
  205DOPC   GL1 2445  11.789   6.796   5.463
  205DOPC   GL2 2446  12.110   6.853   5.426
  205DOPC   C1A 2447  11.845   6.839   5.030
  205DOPC   D2A 2448  12.007   6.866   4.563
  205DOPC   C3A 2449  11.834   6.840   4.133
  205DOPC   C4A 2450  11.749   6.760   3.655
  205DOPC   C1B 2451  12.342   6.863   5.031
  205DOPC   D2B 2452  12.486   6.672   4.590
  205DOPC   C3B 2453  12.355   6.767   4.145
  205DOPC   C4B 2454  12.092   6.475   3.863
  206DOPC   NC3 2455   6.778   5.084   5.845
  206DOPC   PO4 2456   6.606   4.807   5.607
  206DOPC   GL1 2457   6.293   5.051   5.447
  206DOPC   GL2 2458   6.403   5.293   5.574
  206DOPC   C1A 2459   6.338   4.983   5.006
  206DOPC   D2A 2460   6.494   4.901   4.550
  206DOPC   C3A 2461   6.584   4.816   4.108
  206DOPC   C4A 2462   6.697   4.892   3.635
  206DOPC   C1B 2463   6.501   5.427   5.163
  206DOPC   D2B 2464   6.565   5.406   4.663
  206DOPC   C3B 2465   6.469   5.309   4.207
  206DOPC   C4B 2466   6.312   5.209   3.742
  207DOPC   NC3 2467   8.067   1.749   5.786
  207DOPC   PO4 2468   7.856   1.533   5.529
  207DOPC   GL1 2469   8.185   1.476   5.213
  207DOPC   GL2 2470   8.308   1.709   5.372
  207DOPC   C1A 2471   8.111   1.546   4.763
  207DOPC   D2A 2472   7.892   1.640   4.311
  207DOPC   C3A 2473   7.936   1.591   3.834
  207DOPC   C4A 2474   7.852   1.390   3.374
  207DOPC   C1B 2475   8.151   1.981   5.050
  207DOPC   D2B 2476   8.086   2.066   4.548
  207DOPC   C3B 2477   8.253   1.959   4.105
  207DOPC   C4B 2478   8.568   1.918   3.722
  208DOPC   NC3 2479  15.253   3.605   6.003
  208DOPC   PO4 2480  15.102   3.280   5.814
  208DOPC   GL1 2481  15.017   3.366   5.399
  208DOPC   GL2 2482  15.240   3.571   5.401
  208DOPC   C1A 2483  14.939   3.252   4.971
  208DOPC   D2A 2484  15.023   3.004   4.540
  208DOPC   C3A 2485  14.978   3.244   4.125
  208DOPC   C4A 2486  15.119   3.573   3.750
  208DOPC   C1B 2487  15.119   3.752   5.019
  208DOPC   D2B 2488  15.049   3.963   4.580
  208DOPC   C3B 2489  15.171   3.934   4.132
  208DOPC   C4B 2490  15.174   4.125   3.676
  209DOPC   NC3 2491   5.272   8.777   5.829
  209DOPC   PO4 2492   5.561   8.523   5.694
  209DOPC   GL1 2493   5.376   8.447   5.300
  209DOPC   GL2 2494   5.185   8.692   5.364
  209DOPC   C1A 2495   5.515   8.613   4.894
  209DOPC   D2A 2496   5.602   8.825   4.447
  209DOPC   C3A 2497   5.338   8.864   4.067
  209DOPC   C4A 2498   5.030   8.859   3.683
  209DOPC   C1B 2499   5.167   8.975   4.999
  209DOPC   D2B 2500   5.227   9.192   4.529
  209DOPC   C3B 2501   4.947   9.180   4.137
  209DOPC   C4B 2502   4.602   9.113   3.782
  210DOPC   NC3 2503  13.828   2.341   5.680
  210DOPC   PO4 2504  13.481   2.277   5.876
  210DOPC   GL1 2505  13.405   2.380   5.456
  210DOPC   GL2 2506  13.440   2.060   5.441
  210DOPC   C1A 2507  13.653   2.540   5.123
  210DOPC   D2A 2508  13.784   2.595   4.634
  210DOPC   C3A 2509  13.789   2.463   4.165
  210DOPC   C4A 2510  13.965   2.322   3.708
  210DOPC   C1B 2511  13.424   1.700   5.158
  210DOPC   D2B 2512  13.329   1.430   4.747
  210DOPC   C3B 2513  13.363   1.494   4.274
  210DOPC   C4B 2514  13.242   1.575   3.789
  211DOPC   NC3 2515  19.672   4.316   5.494
  211DOPC   PO4 2516  19.754   4.068   5.796
  211DOPC   GL1 2517  19.925   3.879   5.483
  211DOPC   GL2 2518  19.695   3.698   5.441
  211DOPC   C1A 2519  19.933   4.092   5.086
  211DOPC   D2A 2520  19.859   4.273   4.616
  211DOPC   C3A 2521  19.676   4.414   4.194
  211DOPC   C4A 2522  19.461   4.629   3.805
  211DOPC   C1B 2523  19.452   3.924   5.142
  211DOPC   D2B 2524  19.277   4.013   4.677
  211DOPC   C3B 2525  19.364   4.010   4.213
  211DOPC   C4B 2526  19.552   4.083   3.760
  212DOPC   NC3 2527  11.772   5.665   5.587
  212DOPC   PO4 2528  11.917   6.036   5.656
  212DOPC   GL1 2529  12.096   6.364   5.392
  212DOPC   GL2 2530  12.369   6.204   5.457
  212DOPC   C1A 2531  12.107   6.394   4.930
  212DOPC   D2A 2532  12.118   6.351   4.419
  212DOPC   C3A 2533  12.026   6.024   4.073
  212DOPC   C4A 2534  11.873   5.701   3.724
  212DOPC   C1B 2535  12.421   5.963   5.094
  212DOPC   D2B 2536  12.396   5.728   4.656
  212DOPC   C3B 2537  12.474   5.801   4.200
  212DOPC   C4B 2538  12.389   5.691   3.731
  213DOPC   NC3 2539   5.713   6.542   5.758
  213DOPC   PO4 2540   5.959   6.853   5.687
  213DOPC   GL1 2541   5.997   6.743   5.263
  213DOPC   GL2 2542   5.729   6.612   5.232
  213DOPC   C1A 2543   6.117   6.622   4.846
  213DOPC   D2A 2544   5.972   6.401   4.416
  213DOPC   C3A 2545   5.952   6.412   3.942
  213DOPC   C4A 2546   6.000   6.486   3.446
  213DOPC   C1B 2547   5.620   6.530   4.763
  213DOPC   D2B 2548   5.517   6.530   4.236
  213DOPC   C3B 2549   5.589   6.719   3.780
  213DOPC   C4B 2550   5.605   6.897   3.301
  214DOPC   NC3 2551  11.859   2.895   5.627
  214DOPC   PO4 2552  11.513   2.715   5.708
  214DOPC   GL1 2553  11.467   2.880   5.301
  214DOPC   GL2 2554  11.478   3.147   5.472
  214DOPC   C1A 2555  11.365   2.956   4.860
  214DOPC   D2A 2556  11.410   2.996   4.353
  214DOPC   C3A 2557  11.279   3.025   3.895
  214DOPC   C4A 2558  11.155   3.014   3.406
  214DOPC   C1B 2559  11.438   3.429   5.148
  214DOPC   D2B 2560  11.384   3.415   4.657
  214DOPC   C3B 2561  11.261   3.468   4.211
  214DOPC   C4B 2562  11.173   3.502   3.729
  215DOPC   NC3 2563   5.641   4.213   5.959
  215DOPC   PO4 2564   5.398   4.418   5.713
  215DOPC   GL1 2565   5.652   4.428   5.352
  215DOPC   GL2 2566   5.844   4.262   5.517
  215DOPC   C1A 2567   5.783   4.402   4.914
  215DOPC   D2A 2568   5.838   4.395   4.403
  215DOPC   C3A 2569   5.589   4.551   4.037
  215DOPC   C4A 2570   5.316   4.739   3.673
  215DOPC   C1B 2571   6.122   4.111   5.211
  215DOPC   D2B 2572   6.179   3.994   4.730
  215DOPC   C3B 2573   6.127   4.008   4.271
  215DOPC   C4B 2574   5.974   4.274   3.893
  216DOPC   NC3 2575  19.745   2.782   5.839
  216DOPC   PO4 2576  19.542   2.480   5.678
  216DOPC   GL1 2577  19.897   2.616   5.432
  216DOPC   GL2 2578  19.765   2.852   5.354
  216DOPC   C1A 2579   0.084   2.433   5.080
  216DOPC   D2A 2580   0.019   2.209   4.627
  216DOPC   C3A 2581  19.966   2.312   4.168
  216DOPC   C4A 2582  19.899   2.450   3.689
  216DOPC   C1B 2583  19.633   2.648   4.964
  216DOPC   D2B 2584  19.524   2.408   4.515
  216DOPC   C3B 2585  19.471   2.529   4.048
  216DOPC   C4B 2586  19.561   2.866   3.686
  217DOPC   NC3 2587  17.112   6.853   6.070
  217DOPC   PO4 2588  17.506   6.926   6.009
  217DOPC   GL1 2589  17.633   6.794   5.567
  217DOPC   GL2 2590  17.355   6.638   5.589
  217DOPC   C1A 2591  17.664   6.711   5.106
  217DOPC   D2A 2592  17.413   6.574   4.674
  217DOPC   C3A 2593  17.517   6.557   4.204
  217DOPC   C4A 2594  17.708   6.541   3.733
  217DOPC   C1B 2595  17.262   6.408   5.184
  217DOPC   D2B 2596  17.134   6.151   4.745
  217DOPC   C3B 2597  17.119   6.226   4.259
  217DOPC   C4B 2598  17.221   6.418   3.791
  218DOPC   NC3 2599  11.581   4.394   5.935
  218DOPC   PO4 2600  11.242   4.349   5.708
  218DOPC   GL1 2601  11.236   4.275   5.256
  218DOPC   GL2 2602  11.146   3.983   5.319
  218DOPC   C1A 2603  11.390   4.330   4.810
  218DOPC   D2A 2604  11.495   4.343   4.303
  218DOPC   C3A 2605  11.450   4.473   3.845
  218DOPC   C4A 2606  11.516   4.724   3.412
  218DOPC   C1B 2607  11.260   3.850   4.912
  218DOPC   D2B 2608  11.487   3.862   4.462
  218DOPC   C3B 2609  11.352   3.930   4.016
  218DOPC   C4B 2610  11.216   3.965   3.541
  219DOPC   NC3 2611   2.011   5.622   5.876
  219DOPC   PO4 2612   2.173   5.477   5.534
  219DOPC   GL1 2613   2.038   5.546   5.120
  219DOPC   GL2 2614   1.950   5.826   5.230
  219DOPC   C1A 2615   2.104   5.593   4.671
  219DOPC   D2A 2616   2.131   5.642   4.172
  219DOPC   C3A 2617   2.006   5.444   3.763
  219DOPC   C4A 2618   1.747   5.327   3.340
  219DOPC   C1B 2619   2.069   6.066   4.879
  219DOPC   D2B 2620   2.244   6.087   4.413
  219DOPC   C3B 2621   2.070   6.129   3.977
  219DOPC   C4B 2622   1.786   6.247   3.592
  220DOPC   NC3 2623  14.414   0.749   5.786
  220DOPC   PO4 2624  14.342   0.363   5.716
  220DOPC   GL1 2625  13.933   0.430   5.571
  220DOPC   GL2 2626  14.041   0.712   5.494
  220DOPC   C1A 2627  13.914   0.297   5.170
  220DOPC   D2A 2628  14.022   0.241   4.695
  220DOPC   C3A 2629  14.083   0.216   4.239
  220DOPC   C4A 2630  14.228   0.106   3.782
  220DOPC   C1B 2631  14.089   0.765   5.049
  220DOPC   D2B 2632  14.081   0.779   4.543
  220DOPC   C3B 2633  14.153   0.712   4.076
  220DOPC   C4B 2634  14.175   0.579   3.598
  221DOPC   NC3 2635   1.859   9.004   6.023
  221DOPC   PO4 2636   1.502   8.931   5.881
  221DOPC   GL1 2637   1.694   8.851   5.469
  221DOPC   GL2 2638   1.894   9.057   5.552
  221DOPC   C1A 2639   1.732   8.822   5.009
  221DOPC   D2A 2640   1.868   8.801   4.508
  221DOPC   C3A 2641   1.775   8.819   4.030
  221DOPC   C4A 2642   1.641   8.934   3.553
  221DOPC   C1B 2643   2.066   9.184   5.158
  221DOPC   D2B 2644   2.280   9.171   4.689
  221DOPC   C3B 2645   2.193   9.099   4.231
  221DOPC   C4B 2646   2.121   9.080   3.738
  222DOPC   NC3 2647  17.558   3.700   5.633
  222DOPC   PO4 2648  17.170   3.621   5.562
  222DOPC   GL1 2649  17.391   3.558   5.214
  222DOPC   GL2 2650  17.476   3.285   5.369
  222DOPC   C1A 2651  17.385   3.612   4.768
  222DOPC   D2A 2652  17.417   3.767   4.296
  222DOPC   C3A 2653  17.267   3.671   3.859
  222DOPC   C4A 2654  17.089   3.671   3.400
  222DOPC   C1B 2655  17.340   3.141   4.983
  222DOPC   D2B 2656  17.227   3.098   4.511
  222DOPC   C3B 2657  17.462   3.283   4.166
  222DOPC   C4B 2658  17.735   3.486   3.804
  223DOPC   NC3 2659   4.661   2.142   6.090
  223DOPC   PO4 2660   4.332   2.129   5.876
  223DOPC   GL1 2661   4.210   2.167   5.495
  223DOPC   GL2 2662   4.497   2.088   5.378
  223DOPC   C1A 2663   4.129   2.267   5.091
  223DOPC   D2A 2664   4.207   2.260   4.608
  223DOPC   C3A 2665   4.216   2.361   4.144
  223DOPC   C4A 2666   4.054   2.254   3.681
  223DOPC   C1B 2667   4.516   1.960   4.927
  223DOPC   D2B 2668   4.484   1.891   4.406
  223DOPC   C3B 2669   4.272   1.869   3.965
  223DOPC   C4B 2670   4.125   1.780   3.474
  224DOPC   NC3 2671   7.421   8.139   6.184
  224DOPC   PO4 2672   7.419   8.329   5.816
  224DOPC   GL1 2673   7.350   8.195   5.424
  224DOPC   GL2 2674   7.057   8.261   5.383
  224DOPC   C1A 2675   7.450   8.237   5.005
  224DOPC   D2A 2676   7.305   8.213   4.534
  224DOPC   C3A 2677   7.434   8.052   4.114
  224DOPC   C4A 2678   7.624   7.891   3.681
  224DOPC   C1B 2679   6.962   8.392   4.948
  224DOPC   D2B 2680   6.953   8.564   4.459
  224DOPC   C3B 2681   7.006   8.502   3.977
  224DOPC   C4B 2682   6.997   8.320   3.497
  225DOPC   NC3 2683  10.566  10.001   5.615
  225DOPC   PO4 2684  10.217   0.006   5.408
  225DOPC   GL1 2685  10.450   9.867   5.088
  225DOPC   GL2 2686  10.538   9.618   5.236
  225DOPC   C1A 2687  10.462   9.770   4.658
  225DOPC   D2A 2688  10.237   9.774   4.216
  225DOPC   C3A 2689  10.273   9.810   3.752
  225DOPC   C4A 2690  10.346   9.826   3.256
  225DOPC   C1B 2691  10.351   9.347   4.937
  225DOPC   D2B 2692  10.272   9.272   4.444
  225DOPC   C3B 2693  10.194   9.299   3.975
  225DOPC   C4B 2694  10.101   9.410   3.497
  226DOPC   NC3 2695   4.314   6.661   6.008
  226DOPC   PO4 2696   4.403   6.839   5.659
  226DOPC   GL1 2697   4.702   6.811   5.355
  226DOPC   GL2 2698   4.655   7.121   5.299
  226DOPC   C1A 2699   4.471   6.733   4.987
  226DOPC   D2A 2700   4.272   6.629   4.548
  226DOPC   C3A 2701   4.307   6.842   4.133
  226DOPC   C4A 2702   4.309   7.069   3.697
  226DOPC   C1B 2703   4.517   7.278   4.870
  226DOPC   D2B 2704   4.616   7.476   4.400
  226DOPC   C3B 2705   4.448   7.494   3.952
  226DOPC   C4B 2706   4.144   7.527   3.546
  227DOPC   NC3 2707  19.690   3.577   5.898
  227DOPC   PO4 2708  19.763   3.258   5.669
  227DOPC   GL1 2709  19.771   3.288   5.260
  227DOPC   GL2 2710  19.463   3.338   5.277
  227DOPC   C1A 2711  19.841   3.599   4.970
  227DOPC   D2A 2712  19.741   3.798   4.522
  227DOPC   C3A 2713  19.913   3.952   4.110
  227DOPC   C4A 2714   0.059   3.854   3.644
  227DOPC   C1B 2715  19.329   3.496   4.882
  227DOPC   D2B 2716  19.316   3.535   4.389
  227DOPC   C3B 2717  19.568   3.579   3.990
  227DOPC   C4B 2718  19.837   3.326   3.656
  228DOPC   NC3 2719   5.049   4.064   5.724
  228DOPC   PO4 2720   5.097   3.723   5.534
  228DOPC   GL1 2721   5.157   3.922   5.194
  228DOPC   GL2 2722   5.245   4.193   5.315
  228DOPC   C1A 2723   4.912   4.034   4.849
  228DOPC   D2A 2724   4.612   4.216   4.488
  228DOPC   C3A 2725   4.578   4.263   4.024
  228DOPC   C4A 2726   4.510   4.328   3.544
  228DOPC   C1B 2727   5.273   4.415   4.939
  228DOPC   D2B 2728   5.308   4.429   4.438
  228DOPC   C3B 2729   5.145   4.302   3.997
  228DOPC   C4B 2730   5.037   4.281   3.506
  229DOPC   NC3 2731   0.500   9.547   5.651
  229DOPC   PO4 2732   0.116   9.672   5.659
  229DOPC   GL1 2733   0.092   9.717   5.179
  229DOPC   GL2 2734   0.249   9.473   5.247
  229DOPC   C1A 2735   0.131   9.791   4.728
  229DOPC   D2A 2736   0.330   9.730   4.280
  229DOPC   C3A 2737   0.245   9.876   3.850
  229DOPC   C4A 2738   0.160   0.098   3.409
  229DOPC   C1B 2739   0.359   9.343   4.859
  229DOPC   D2B 2740   0.386   9.239   4.386
  229DOPC   C3B 2741   0.405   9.351   3.934
  229DOPC   C4B 2742   0.799   9.317   3.666
  230DOPC   NC3 2743   5.668   2.014   6.027
  230DOPC   PO4 2744   5.565   2.242   5.710
  230DOPC   GL1 2745   5.741   2.227   5.308
  230DOPC   GL2 2746   6.003   2.106   5.370
  230DOPC   C1A 2747   5.754   2.170   4.868
  230DOPC   D2A 2748   5.839   1.980   4.425
  230DOPC   C3A 2749   5.823   2.161   4.007
  230DOPC   C4A 2750   5.713   2.289   3.562
  230DOPC   C1B 2751   6.166   1.883   4.983
  230DOPC   D2B 2752   6.272   1.713   4.501
  230DOPC   C3B 2753   6.140   1.767   4.038
  230DOPC   C4B 2754   6.012   1.870   3.555
  231DOPC   NC3 2755  13.339   9.946   6.085
  231DOPC   PO4 2756  13.232   0.076   5.726
  231DOPC   GL1 2757  13.392   9.915   5.406
  231DOPC   GL2 2758  13.194   9.683   5.364
  231DOPC   C1A 2759  13.458   0.139   5.041
  231DOPC   D2A 2760  13.529   0.169   4.549
  231DOPC   C3A 2761  13.630  -0.007   4.118
  231DOPC   C4A 2762  13.794   9.879   3.669
  231DOPC   C1B 2763  13.258   9.700   4.918
  231DOPC   D2B 2764  13.394   9.700   4.455
  231DOPC   C3B 2765  13.300   9.552   4.040
  231DOPC   C4B 2766  13.027   9.239   3.783
  232DOPC   NC3 2767  19.362   5.503   5.852
  232DOPC   PO4 2768  19.660   5.643   5.621
  232DOPC   GL1 2769  19.392   5.596   5.307
  232DOPC   GL2 2770  19.304   5.907   5.306
  232DOPC   C1A 2771  19.608   5.431   4.952
  232DOPC   D2A 2772  19.881   5.256   4.560
  232DOPC   C3A 2773  19.904   5.357   4.099
  232DOPC   C4A 2774  19.765   5.603   3.690
  232DOPC   C1B 2775  19.314   6.013   4.857
  232DOPC   D2B 2776  19.314   6.137   4.346
  232DOPC   C3B 2777  19.627   6.085   3.972
  232DOPC   C4B 2778   0.003   6.055   3.630
  233DOPC   NC3 2779  13.752   7.179   5.926
  233DOPC   PO4 2780  13.607   7.458   5.680
  233DOPC   GL1 2781  13.530   7.241   5.306
  233DOPC   GL2 2782  13.671   7.014   5.467
  233DOPC   C1A 2783  13.614   7.391   4.873
  233DOPC   D2A 2784  13.612   7.677   4.440
  233DOPC   C3A 2785  13.469   7.560   3.993
  233DOPC   C4A 2786  13.239   7.341   3.602
  233DOPC   C1B 2787  13.862   6.763   5.170
  233DOPC   D2B 2788  13.908   6.594   4.707
  233DOPC   C3B 2789  13.794   6.851   4.339
  233DOPC   C4B 2790  13.635   7.073   3.920
  234DOPC   NC3 2791   0.588   0.086   5.794
  234DOPC   PO4 2792   0.192   0.147   5.832
  234DOPC   GL1 2793   0.139   0.091   5.411
  234DOPC   GL2 2794   0.408   9.929   5.390
  234DOPC   C1A 2795   0.212   0.258   5.004
  234DOPC   D2A 2796   0.398   0.425   4.566
  234DOPC   C3A 2797   0.091   0.179   4.305
  234DOPC   C4A 2798  19.883   0.234   3.865
  234DOPC   C1B 2799   0.558   9.876   4.966
  234DOPC   D2B 2800   0.691   0.032   4.484
  234DOPC   C3B 2801   0.539   0.241   4.077
  234DOPC   C4B 2802   0.321   0.495   3.709
  235DOPC   NC3 2803  19.080   2.681   5.874
  235DOPC   PO4 2804  18.915   2.318   5.917
  235DOPC   GL1 2805  18.699   2.257   5.536
  235DOPC   GL2 2806  18.606   2.558   5.570
  235DOPC   C1A 2807  18.798   2.178   5.098
  235DOPC   D2A 2808  18.958   2.180   4.609
  235DOPC   C3A 2809  18.893   2.411   4.197
  235DOPC   C4A 2810  18.739   2.706   3.820
  235DOPC   C1B 2811  18.605   2.662   5.126
  235DOPC   D2B 2812  18.499   2.828   4.647
  235DOPC   C3B 2813  18.770   2.918   4.280
  235DOPC   C4B 2814  19.149   2.970   3.967
  236DOPC   NC3 2815   6.273   5.853   5.852
  236DOPC   PO4 2816   6.188   6.246   5.824
  236DOPC   GL1 2817   5.977   6.290   5.437
  236DOPC   GL2 2818   5.848   6.016   5.521
  236DOPC   C1A 2819   5.923   6.180   5.007
  236DOPC   D2A 2820   5.786   5.954   4.575
  236DOPC   C3A 2821   5.847   5.942   4.099
  236DOPC   C4A 2822   5.925   5.973   3.603
  236DOPC   C1B 2823   5.722   5.738   5.171
  236DOPC   D2B 2824   5.618   5.478   4.738
  236DOPC   C3B 2825   5.500   5.617   4.292
  236DOPC   C4B 2826   5.337   5.927   3.921
  237DOPC   NC3 2827  19.816   2.218   6.009
  237DOPC   PO4 2828   0.089   2.405   5.795
  237DOPC   GL1 2829  19.871   2.187   5.473
  237DOPC   GL2 2830  19.822   1.937   5.612
  237DOPC   C1A 2831  19.692   2.112   5.055
  237DOPC   D2A 2832  19.579   1.906   4.610
  237DOPC   C3A 2833  19.538   2.020   4.158
  237DOPC   C4A 2834  19.500   2.128   3.685
  237DOPC   C1B 2835  19.995   1.753   5.238
  237DOPC   D2B 2836   0.041   1.700   4.743
  237DOPC   C3B 2837  19.989   1.790   4.289
  237DOPC   C4B 2838  19.941   1.924   3.821
  238DOPC   NC3 2839   9.061   6.939   5.867
  238DOPC   PO4 2840   8.716   7.045   5.706
  238DOPC   GL1 2841   8.908   7.327   5.463
  238DOPC   GL2 2842   8.693   7.535   5.521
  238DOPC   C1A 2843   8.968   7.335   5.020
  238DOPC   D2A 2844   8.927   7.416   4.511
  238DOPC   C3A 2845   8.827   7.428   4.029
  238DOPC   C4A 2846   8.825   7.469   3.519
  238DOPC   C1B 2847   8.664   7.744   5.127
  238DOPC   D2B 2848   8.762   7.876   4.638
  238DOPC   C3B 2849   9.028   7.844   4.235
  238DOPC   C4B 2850   9.140   7.833   3.738
  239DOPC   NC3 2851   0.711   1.787   5.813
  239DOPC   PO4 2852   0.960   2.061   5.985
  239DOPC   GL1 2853   1.002   2.112   5.549
  239DOPC   GL2 2854   1.302   2.021   5.601
  239DOPC   C1A 2855   0.857   1.977   5.126
  239DOPC   D2A 2856   0.934   2.075   4.624
  239DOPC   C3A 2857   0.896   1.892   4.175
  239DOPC   C4A 2858   0.831   1.584   3.771
  239DOPC   C1B 2859   1.375   1.930   5.174
  239DOPC   D2B 2860   1.411   1.747   4.696
  239DOPC   C3B 2861   1.379   1.699   4.220
  239DOPC   C4B 2862   1.355   1.664   3.720
  240DOPC   NC3 2863  12.134   2.822   6.031
  240DOPC   PO4 2864  12.351   3.026   5.763
  240DOPC   GL1 2865  12.253   2.939   5.353
  240DOPC   GL2 2866  12.219   2.647   5.431
  240DOPC   C1A 2867  12.256   2.961   4.906
  240DOPC   D2A 2868  12.477   2.989   4.464
  240DOPC   C3A 2869  12.337   3.076   4.020
  240DOPC   C4A 2870  12.005   3.193   3.678
  240DOPC   C1B 2871  12.173   2.393   5.074
  240DOPC   D2B 2872  12.036   2.249   4.613
  240DOPC   C3B 2873  12.084   2.398   4.172
  240DOPC   C4B 2874  12.103   2.647   3.740
  241DOPC   NC3 2875   6.629   3.770   5.954
  241DOPC   PO4 2876   6.254   3.851   5.832
  241DOPC   GL1 2877   6.510   3.814   5.477
  241DOPC   GL2 2878   6.561   3.516   5.544
  241DOPC   C1A 2879   6.484   3.757   5.052
  241DOPC   D2A 2880   6.548   3.675   4.545
  241DOPC   C3A 2881   6.504   3.745   4.072
  241DOPC   C4A 2882   6.250   3.919   3.678
  241DOPC   C1B 2883   6.610   3.272   5.152
  241DOPC   D2B 2884   6.569   3.152   4.650
  241DOPC   C3B 2885   6.556   3.233   4.171
  241DOPC   C4B 2886   6.564   3.362   3.684
  242DOPC   NC3 2887   5.169   0.981   5.881
  242DOPC   PO4 2888   4.947   0.742   5.639
  242DOPC   GL1 2889   4.692   0.994   5.358
  242DOPC   GL2 2890   4.949   1.158   5.307
  242DOPC   C1A 2891   4.534   0.993   4.934
  242DOPC   D2A 2892   4.460   1.008   4.436
  242DOPC   C3A 2893   4.831   0.908   4.168
  242DOPC   C4A 2894   5.227   0.936   3.866
  242DOPC   C1B 2895   5.029   1.163   4.853
  242DOPC   D2B 2896   5.217   1.174   4.369
  242DOPC   C3B 2897   4.989   1.367   3.992
  242DOPC   C4B 2898   4.523   1.228   3.903
  243DOPC   NC3 2899  16.335   5.882   6.247
  243DOPC   PO4 2900  16.112   5.887   5.918
  243DOPC   GL1 2901  16.269   6.121   5.568
  243DOPC   GL2 2902  16.427   5.863   5.558
  243DOPC   C1A 2903  16.476   6.200   5.172
  243DOPC   D2A 2904  16.615   6.136   4.689
  243DOPC   C3A 2905  16.556   6.250   4.228
  243DOPC   C4A 2906  16.758   6.236   3.772
  243DOPC   C1B 2907  16.488   5.683   5.156
  243DOPC   D2B 2908  16.815   5.672   4.769
  243DOPC   C3B 2909  16.702   5.758   4.317
  243DOPC   C4B 2910  16.529   5.770   3.853
  244DOPC   NC3 2911   4.244   9.086   5.811
  244DOPC   PO4 2912   4.576   8.910   5.678
  244DOPC   GL1 2913   4.320   9.031   5.309
  244DOPC   GL2 2914   4.436   9.305   5.369
  244DOPC   C1A 2915   4.232   8.964   4.854
  244DOPC   D2A 2916   4.077   8.971   4.361
  244DOPC   C3A 2917   4.121   8.958   3.890
  244DOPC   C4A 2918   4.150   8.789   3.420
  244DOPC   C1B 2919   4.564   9.353   4.954
  244DOPC   D2B 2920   4.564   9.177   4.488
  244DOPC   C3B 2921   4.562   8.799   4.210
  244DOPC   C4B 2922   4.491   8.597   3.769
  245DOPC   NC3 2923   8.289   1.121   6.020
  245DOPC   PO4 2924   8.323   1.309   5.668
  245DOPC   GL1 2925   8.264   1.067   5.362
  245DOPC   GL2 2926   7.960   1.117   5.344
  245DOPC   C1A 2927   8.509   1.140   4.977
  245DOPC   D2A 2928   8.750   1.135   4.523
  245DOPC   C3A 2929   8.565   1.097   4.070
  245DOPC   C4A 2930   8.266   1.219   3.675
  245DOPC   C1B 2931   8.020   1.073   4.930
  245DOPC   D2B 2932   8.240   0.982   4.495
  245DOPC   C3B 2933   8.024   1.020   4.081
  245DOPC   C4B 2934   7.738   0.994   3.680
  246DOPC   NC3 2935   0.196   8.769   5.880
  246DOPC   PO4 2936   0.203   8.418   5.690
  246DOPC   GL1 2937   0.121   8.679   5.341
  246DOPC   GL2 2938   0.380   8.805   5.414
  246DOPC   C1A 2939   0.187   8.753   4.909
  246DOPC   D2A 2940   0.241   8.764   4.417
  246DOPC   C3A 2941   0.021   9.037   4.093
  246DOPC   C4A 2942  19.954   9.266   3.660
  246DOPC   C1B 2943   0.634   8.966   5.079
  246DOPC   D2B 2944   0.876   9.080   4.655
  246DOPC   C3B 2945   0.819   9.075   4.178
  246DOPC   C4B 2946   0.608   8.842   3.790
  247DOPC   NC3 2947  19.059   9.519   6.122
  247DOPC   PO4 2948  19.368   9.272   6.056
  247DOPC   GL1 2949  19.309   9.344   5.612
  247DOPC   GL2 2950  19.080   9.528   5.647
  247DOPC   C1A 2951  19.388   9.485   5.195
  247DOPC   D2A 2952  19.398   9.555   4.702
  247DOPC   C3A 2953  19.186   9.711   4.316
  247DOPC   C4A 2954  18.995   9.787   3.861
  247DOPC   C1B 2955  18.910   9.606   5.228
  247DOPC   D2B 2956  18.850   9.737   4.728
  247DOPC   C3B 2957  18.680   9.732   4.262
  247DOPC   C4B 2958  18.491   9.717   3.790
  248DOPC   NC3 2959  15.486   6.003   5.817
  248DOPC   PO4 2960  15.803   6.193   5.652
  248DOPC   GL1 2961  15.958   5.844   5.406
  248DOPC   GL2 2962  15.655   5.809   5.382
  248DOPC   C1A 2963  16.005   5.842   4.954
  248DOPC   D2A 2964  15.893   5.723   4.467
  248DOPC   C3A 2965  16.062   5.878   4.053
  248DOPC   C4A 2966  16.256   6.189   3.724
  248DOPC   C1B 2967  15.544   6.046   5.010
  248DOPC   D2B 2968  15.608   6.150   4.516
  248DOPC   C3B 2969  15.557   5.908   4.116
  248DOPC   C4B 2970  15.655   5.567   3.757
  249DOPC   NC3 2971   7.341   4.168   5.932
  249DOPC   PO4 2972   7.688   4.012   5.830
  249DOPC   GL1 2973   7.555   4.040   5.460
  249DOPC   GL2 2974   7.347   4.276   5.486
  249DOPC   C1A 2975   7.307   3.867   5.153
  249DOPC   D2A 2976   7.137   4.017   4.725
  249DOPC   C3A 2977   6.921   3.955   4.318
  249DOPC   C4A 2978   7.080   4.069   3.871
  249DOPC   C1B 2979   7.096   4.397   5.122
  249DOPC   D2B 2980   6.868   4.578   4.701
  249DOPC   C3B 2981   6.944   4.478   4.240
  249DOPC   C4B 2982   7.058   4.551   3.755
  250DOPC   NC3 2983   8.570   2.498   5.907
  250DOPC   PO4 2984   8.297   2.567   5.610
  250DOPC   GL1 2985   8.314   2.418   5.182
  250DOPC   GL2 2986   8.608   2.514   5.175
  250DOPC   C1A 2987   8.253   2.521   4.748
  250DOPC   D2A 2988   8.196   2.701   4.290
  250DOPC   C3A 2989   8.363   2.508   3.898
  250DOPC   C4A 2990   8.619   2.380   3.485
  250DOPC   C1B 2991   8.739   2.636   4.746
  250DOPC   D2B 2992   8.726   2.741   4.245
  250DOPC   C3B 2993   8.773   2.778   3.774
  250DOPC   C4B 2994   8.734   2.857   3.281
  251DOPC   NC3 2995   2.062   2.821   6.013
  251DOPC   PO4 2996   2.015   2.459   5.830
  251DOPC   GL1 2997   2.183   2.516   5.450
  251DOPC   GL2 2998   2.200   2.827   5.493
  251DOPC   C1A 2999   1.945   2.494   5.069
  251DOPC   D2A 3000   1.798   2.607   4.610
  251DOPC   C3A 3001   1.824   2.515   4.158
  251DOPC   C4A 3002   2.006   2.398   3.722
  251DOPC   C1B 3003   2.057   2.994   5.101
  251DOPC   D2B 3004   1.939   3.142   4.629
  251DOPC   C3B 3005   1.915   3.057   4.165
  251DOPC   C4B 3006   1.830   2.892   3.702
  252DOPC   NC3 3007   7.464   9.351   5.876
  252DOPC   PO4 3008   7.724   9.077   6.001
  252DOPC   GL1 3009   7.811   9.129   5.571
  252DOPC   GL2 3010   7.531   9.025   5.524
  252DOPC   C1A 3011   7.922   9.357   5.199
  252DOPC   D2A 3012   7.949   9.497   4.707
  252DOPC   C3A 3013   7.773   9.456   4.257
  252DOPC   C4A 3014   7.514   9.374   3.840
  252DOPC   C1B 3015   7.444   9.184   5.126
  252DOPC   D2B 3016   7.490   9.275   4.640
  252DOPC   C3B 3017   7.254   9.476   4.267
  252DOPC   C4B 3018   7.086   9.656   3.820
  253DOPC   NC3 3019  18.119   7.325   5.876
  253DOPC   PO4 3020  18.386   7.093   5.682
  253DOPC   GL1 3021  18.237   7.236   5.348
  253DOPC   GL2 3022  18.008   7.384   5.407
  253DOPC   C1A 3023  18.185   7.069   4.956
  253DOPC   D2A 3024  18.269   6.853   4.518
  253DOPC   C3A 3025  18.214   7.104   4.121
  253DOPC   C4A 3026  18.081   7.456   3.785
  253DOPC   C1B 3027  17.707   7.237   5.100
  253DOPC   D2B 3028  17.728   6.982   4.648
  253DOPC   C3B 3029  17.703   7.029   4.168
  253DOPC   C4B 3030  17.720   7.080   3.667
  254DOPC   NC3 3031   4.302   1.712   5.572
  254DOPC   PO4 3032   4.599   1.455   5.480
  254DOPC   GL1 3033   4.654   1.428   5.066
  254DOPC   GL2 3034   4.344   1.510   5.072
  254DOPC   C1A 3035   4.588   1.453   4.639
  254DOPC   D2A 3036   4.228   1.449   4.273
  254DOPC   C3A 3037   4.049   1.424   3.831
  254DOPC   C4A 3038   3.960   1.202   3.389
  254DOPC   C1B 3039   4.121   1.272   4.755
  254DOPC   D2B 3040   3.926   1.023   4.356
  254DOPC   C3B 3041   4.095   0.931   3.917
  254DOPC   C4B 3042   4.408   0.924   3.510
  255DOPC   NC3 3043  19.431   6.512   5.815
  255DOPC   PO4 3044  19.549   6.296   5.503
  255DOPC   GL1 3045  19.182   6.516   5.367
  255DOPC   GL2 3046  19.316   6.780   5.442
  255DOPC   C1A 3047  19.171   6.529   4.919
  255DOPC   D2A 3048  19.446   6.636   4.505
  255DOPC   C3A 3049  19.504   6.595   4.026
  255DOPC   C4A 3050  19.626   6.423   3.570
  255DOPC   C1B 3051  19.486   6.920   5.046
  255DOPC   D2B 3052  19.685   7.094   4.605
  255DOPC   C3B 3053  19.730   7.050   4.143
  255DOPC   C4B 3054  19.674   7.013   3.653
  256DOPC   NC3 3055  14.897   1.502   6.005
  256DOPC   PO4 3056  14.668   1.717   5.752
  256DOPC   GL1 3057  14.778   1.514   5.413
  256DOPC   GL2 3058  14.790   1.239   5.574
  256DOPC   C1A 3059  14.696   1.423   4.988
  256DOPC   D2A 3060  14.610   1.356   4.507
  256DOPC   C3A 3061  14.922   1.435   4.160
  256DOPC   C4A 3062  15.269   1.529   3.814
  256DOPC   C1B 3063  14.618   0.957   5.265
  256DOPC   D2B 3064  14.508   0.917   4.771
  256DOPC   C3B 3065  14.578   0.912   4.286
  256DOPC   C4B 3066  14.702   1.105   3.834
  257DOPC   NC3 3067  17.650   4.168   5.886
  257DOPC   PO4 3068  17.989   4.000   5.789
  257DOPC   GL1 3069  17.981   3.726   5.435
  257DOPC   GL2 3070  18.277   3.825   5.440
  257DOPC   C1A 3071  17.806   3.777   5.028
  257DOPC   D2A 3072  17.867   3.903   4.536
  257DOPC   C3A 3073  17.819   3.967   4.058
  257DOPC   C4A 3074  17.868   4.206   3.622
  257DOPC   C1B 3075  18.249   4.086   5.073
  257DOPC   D2B 3076  18.299   4.360   4.654
  257DOPC   C3B 3077  18.233   4.344   4.185
  257DOPC   C4B 3078  18.372   4.261   3.721
  258DOPC   NC3 3079   4.511   8.421   5.852
  258DOPC   PO4 3080   4.149   8.597   5.824
  258DOPC   GL1 3081   4.211   8.636   5.439
  258DOPC   GL2 3082   4.494   8.552   5.395
  258DOPC   C1A 3083   4.051   8.522   5.050
  258DOPC   D2A 3084   4.208   8.525   4.570
  258DOPC   C3A 3085   4.124   8.480   4.112
  258DOPC   C4A 3086   4.080   8.301   3.649
  258DOPC   C1B 3087   4.555   8.533   4.954
  258DOPC   D2B 3088   4.710   8.357   4.498
  258DOPC   C3B 3089   4.588   8.180   4.072
  258DOPC   C4B 3090   4.480   7.934   3.656
  259DOPC   NC3 3091  10.808   8.916   6.128
  259DOPC   PO4 3092  10.938   8.988   5.747
  259DOPC   GL1 3093  11.012   8.820   5.315
  259DOPC   GL2 3094  11.316   8.893   5.386
  259DOPC   C1A 3095  11.060   8.888   4.849
  259DOPC   D2A 3096  11.159   9.067   4.384
  259DOPC   C3A 3097  11.041   8.972   3.935
  259DOPC   C4A 3098  11.076   8.921   3.437
  259DOPC   C1B 3099  11.517   9.051   5.004
  259DOPC   D2B 3100  11.649   9.159   4.515
  259DOPC   C3B 3101  11.546   8.956   4.080
  259DOPC   C4B 3102  11.460   8.672   3.681
  260DOPC   NC3 3103  19.697   0.154   5.945
  260DOPC   PO4 3104  19.672   0.560   5.936
  260DOPC   GL1 3105  19.932   0.485   5.621
  260DOPC   GL2 3106   0.037   0.767   5.566
  260DOPC   C1A 3107  19.755   0.317   5.247
  260DOPC   D2A 3108  19.524   0.319   4.792
  260DOPC   C3A 3109  19.528   0.382   4.315
  260DOPC   C4A 3110  19.395   0.427   3.833
  260DOPC   C1B 3111   0.023   0.741   5.110
  260DOPC   D2B 3112  19.935   0.544   4.638
  260DOPC   C3B 3113  19.975   0.655   4.173
  260DOPC   C4B 3114  19.821   0.731   3.703
  261DOPC   NC3 3115  18.111   2.889   5.817
  261DOPC   PO4 3116  17.745   3.024   5.706
  261DOPC   GL1 3117  17.634   2.829   5.308
  261DOPC   GL2 3118  17.953   2.793   5.289
  261DOPC   C1A 3119  17.724   2.831   4.872
  261DOPC   D2A 3120  17.983   2.865   4.445
  261DOPC   C3A 3121  17.864   3.004   4.003
  261DOPC   C4A 3122  17.923   3.123   3.507
  261DOPC   C1B 3123  18.148   2.572   4.941
  261DOPC   D2B 3124  18.422   2.338   4.572
  261DOPC   C3B 3125  18.363   2.588   4.170
  261DOPC   C4B 3126  18.275   2.857   3.752
  262DOPC   NC3 3127   7.296   8.822   5.887
  262DOPC   PO4 3128   7.075   9.070   5.670
  262DOPC   GL1 3129   7.102   8.812   5.292
  262DOPC   GL2 3130   7.310   8.644   5.452
  262DOPC   C1A 3131   7.190   8.845   4.834
  262DOPC   D2A 3132   7.260   8.958   4.332
  262DOPC   C3A 3133   7.034   9.121   3.952
  262DOPC   C4A 3134   6.644   9.362   3.757
  262DOPC   C1B 3135   7.605   8.707   5.136
  262DOPC   D2B 3136   7.654   8.716   4.618
  262DOPC   C3B 3137   7.492   8.554   4.188
  262DOPC   C4B 3138   7.455   8.392   3.707
  263DOPC   NC3 3139  19.340   4.956   5.859
  263DOPC   PO4 3140  19.002   4.753   5.777
  263DOPC   GL1 3141  18.911   4.747   5.320
  263DOPC   GL2 3142  18.805   5.033   5.400
  263DOPC   C1A 3143  18.978   4.788   4.866
  263DOPC   D2A 3144  18.998   5.039   4.426
  263DOPC   C3A 3145  19.028   4.918   3.970
  263DOPC   C4A 3146  18.943   4.625   3.586
  263DOPC   C1B 3147  18.710   5.227   5.013
  263DOPC   D2B 3148  18.529   5.226   4.537
  263DOPC   C3B 3149  18.679   5.301   4.084
  263DOPC   C4B 3150  19.040   5.376   3.733
  264DOPC   NC3 3151  19.725   1.056   5.768
  264DOPC   PO4 3152  19.833   1.447   5.794
  264DOPC   GL1 3153  19.488   1.410   5.548
  264DOPC   GL2 3154  19.523   1.667   5.404
  264DOPC   C1A 3155  19.590   1.097   5.257
  264DOPC   D2A 3156  19.637   0.891   4.817
  264DOPC   C3A 3157  19.564   0.911   4.351
  264DOPC   C4A 3158  19.388   0.946   3.881
  264DOPC   C1B 3159  19.588   1.552   4.975
  264DOPC   D2B 3160  19.692   1.408   4.494
  264DOPC   C3B 3161  19.612   1.521   4.038
  264DOPC   C4B 3162  19.579   1.643   3.556
  265DOPC   NC3 3163  14.227   1.277   6.228
  265DOPC   PO4 3164  14.462   1.256   5.911
  265DOPC   GL1 3165  14.362   1.370   5.516
  265DOPC   GL2 3166  14.240   1.634   5.532
  265DOPC   C1A 3167  14.232   1.261   5.107
  265DOPC   D2A 3168  14.104   1.271   4.625
  265DOPC   C3A 3169  14.229   1.260   4.171
  265DOPC   C4A 3170  14.208   1.152   3.698
  265DOPC   C1B 3171  13.942   1.673   5.183
  265DOPC   D2B 3172  13.775   1.647   4.700
  265DOPC   C3B 3173  13.926   1.658   4.243
  265DOPC   C4B 3174  14.190   1.683   3.807
  266DOPC   NC3 3175   1.152   8.091   5.951
  266DOPC   PO4 3176   1.344   7.934   5.638
  266DOPC   GL1 3177   1.014   8.106   5.344
  266DOPC   GL2 3178   1.139   8.349   5.500
  266DOPC   C1A 3179   0.995   8.189   4.870
  266DOPC   D2A 3180   0.915   8.153   4.350
  266DOPC   C3A 3181   1.169   8.107   3.945
  266DOPC   C4A 3182   1.632   8.006   3.799
  266DOPC   C1B 3183   1.446   8.420   5.182
  266DOPC   D2B 3184   1.488   8.473   4.681
  266DOPC   C3B 3185   1.452   8.445   4.210
  266DOPC   C4B 3186   1.454   8.483   3.708
  267DOPC   NC3 3187   3.609   8.546   6.278
  267DOPC   PO4 3188   3.579   8.755   5.928
  267DOPC   GL1 3189   3.855   8.887   5.591
  267DOPC   GL2 3190   3.776   8.594   5.505
  267DOPC   C1A 3191   3.803   8.950   5.167
  267DOPC   D2A 3192   3.740   8.759   4.697
  267DOPC   C3A 3193   3.533   8.550   4.311
  267DOPC   C4A 3194   3.280   8.374   3.901
  267DOPC   C1B 3195   3.526   8.520   5.129
  267DOPC   D2B 3196   3.250   8.385   4.723
  267DOPC   C3B 3197   3.170   8.117   4.331
  267DOPC   C4B 3198   3.171   7.822   3.922
  268DOPC   NC3 3199  10.010   5.852   5.991
  268DOPC   PO4 3200  10.254   5.629   5.773
  268DOPC   GL1 3201  10.431   5.853   5.422
  268DOPC   GL2 3202  10.682   5.780   5.577
  268DOPC   C1A 3203  10.471   5.830   4.967
  268DOPC   D2A 3204  10.542   5.927   4.473
  268DOPC   C3A 3205  10.480   5.925   3.999
  268DOPC   C4A 3206  10.427   5.734   3.537
  268DOPC   C1B 3207  11.008   5.856   5.284
  268DOPC   D2B 3208  10.988   5.920   4.779
  268DOPC   C3B 3209  11.032   5.923   4.308
  268DOPC   C4B 3210  10.960   5.857   3.819
  269DOPC   NC3 3211  16.466   9.031   5.862
  269DOPC   PO4 3212  16.623   9.366   5.705
  269DOPC   GL1 3213  16.392   9.206   5.400
  269DOPC   GL2 3214  16.595   8.956   5.411
  269DOPC   C1A 3215  16.244   9.190   4.994
  269DOPC   D2A 3216  16.146   9.261   4.502
  269DOPC   C3A 3217  16.165   8.998   4.105
  269DOPC   C4A 3218  16.299   8.746   3.700
  269DOPC   C1B 3219  16.564   8.726   5.024
  269DOPC   D2B 3220  16.631   8.558   4.552
  269DOPC   C3B 3221  16.674   8.733   4.105
  269DOPC   C4B 3222  16.799   8.890   3.644
  270DOPC   NC3 3223  11.158   0.104   6.082
  270DOPC   PO4 3224  11.073   0.048   5.693
  270DOPC   GL1 3225  10.963   0.212   5.284
  270DOPC   GL2 3226  10.848   9.941   5.251
  270DOPC   C1A 3227  11.072   0.219   4.840
  270DOPC   D2A 3228  11.194   0.088   4.362
  270DOPC   C3A 3229  11.452   9.972   3.978
  270DOPC   C4A 3230  11.694   9.690   3.647
  270DOPC   C1B 3231  10.938   9.738   4.867
  270DOPC   D2B 3232  11.207   9.578   4.467
  270DOPC   C3B 3233  11.035   9.668   4.037
  270DOPC   C4B 3234  10.759   9.708   3.620
  271DOPC   NC3 3235  13.448   2.759   5.756
  271DOPC   PO4 3236  13.826   2.866   5.694
  271DOPC   GL1 3237  13.736   2.954   5.348
  271DOPC   GL2 3238  13.453   2.921   5.297
  271DOPC   C1A 3239  13.923   2.983   4.984
  271DOPC   D2A 3240  14.141   2.994   4.557
  271DOPC   C3A 3241  13.890   2.970   4.169
  271DOPC   C4A 3242  13.706   2.789   3.756
  271DOPC   C1B 3243  13.436   2.892   4.837
  271DOPC   D2B 3244  13.404   2.774   4.350
  271DOPC   C3B 3245  13.223   2.670   3.925
  271DOPC   C4B 3246  13.049   2.564   3.464
  272DOPC   NC3 3247  17.148   7.375   6.089
  272DOPC   PO4 3248  17.348   7.629   5.858
  272DOPC   GL1 3249  17.204   7.380   5.596
  272DOPC   GL2 3250  17.219   7.105   5.683
  272DOPC   C1A 3251  17.184   7.443   5.155
  272DOPC   D2A 3252  17.075   7.511   4.671
  272DOPC   C3A 3253  17.091   7.438   4.203
  272DOPC   C4A 3254  17.029   7.395   3.703
  272DOPC   C1B 3255  17.267   6.966   5.282
  272DOPC   D2B 3256  17.226   7.037   4.803
  272DOPC   C3B 3257  17.204   6.946   4.355
  272DOPC   C4B 3258  17.260   6.940   3.873
  273DOPC   NC3 3259  13.255   7.082   5.878
  273DOPC   PO4 3260  13.198   6.890   5.534
  273DOPC   GL1 3261  13.382   6.825   5.162
  273DOPC   GL2 3262  13.077   6.874   5.079
  273DOPC   C1A 3263  13.502   6.898   4.766
  273DOPC   D2A 3264  13.438   7.201   4.380
  273DOPC   C3A 3265  13.114   7.095   4.062
  273DOPC   C4A 3266  12.752   6.932   3.770
  273DOPC   C1B 3267  12.872   6.979   4.697
  273DOPC   D2B 3268  12.462   7.161   4.445
  273DOPC   C3B 3269  12.445   7.292   3.987
  273DOPC   C4B 3270  12.741   7.508   3.647
  274DOPC   NC3 3271   6.664   0.699   5.971
  274DOPC   PO4 3272   7.053   0.660   5.866
  274DOPC   GL1 3273   6.944   0.843   5.476
  274DOPC   GL2 3274   6.678   0.693   5.492
  274DOPC   C1A 3275   6.896   0.916   5.043
  274DOPC   D2A 3276   6.764   0.891   4.550
  274DOPC   C3A 3277   6.791   0.843   4.068
  274DOPC   C4A 3278   6.892   0.796   3.580
  274DOPC   C1B 3279   6.565   0.531   5.087
  274DOPC   D2B 3280   6.527   0.262   4.659
  274DOPC   C3B 3281   6.510   0.399   4.202
  274DOPC   C4B 3282   6.513   0.422   3.703
  275DOPC   NC3 3283  15.342   7.024   5.875
  275DOPC   PO4 3284  15.428   7.391   5.732
  275DOPC   GL1 3285  15.326   7.383   5.321
  275DOPC   GL2 3286  15.127   7.122   5.390
  275DOPC   C1A 3287  15.341   7.481   4.873
  275DOPC   D2A 3288  15.313   7.527   4.359
  275DOPC   C3A 3289  15.385   7.736   3.936
  275DOPC   C4A 3290  15.474   7.831   3.452
  275DOPC   C1B 3291  14.913   7.001   4.985
  275DOPC   D2B 3292  14.669   7.000   4.534
  275DOPC   C3B 3293  14.915   7.176   4.177
  275DOPC   C4B 3294  15.180   7.313   3.782
  276DOPC   NC3 3295  10.421   0.779   5.826
  276DOPC   PO4 3296  10.320   0.427   5.685
  276DOPC   GL1 3297  10.330   0.532   5.295
  276DOPC   GL2 3298  10.532   0.311   5.252
  276DOPC   C1A 3299  10.118   0.510   4.917
  276DOPC   D2A 3300  10.139   0.187   4.533
  276DOPC   C3A 3301   9.975   0.431   4.171
  276DOPC   C4A 3302   9.771   0.689   3.812
  276DOPC   C1B 3303  10.570   0.244   4.829
  276DOPC   D2B 3304  10.680   0.122   4.356
  276DOPC   C3B 3305  10.431   0.245   3.981
  276DOPC   C4B 3306  10.055   0.282   3.663
  277DOPC   NC3 3307   4.439   6.058   5.780
  277DOPC   PO4 3308   4.100   5.867   5.709
  277DOPC   GL1 3309   4.215   5.982   5.332
  277DOPC   GL2 3310   4.501   5.892   5.353
  277DOPC   C1A 3311   4.101   5.866   4.927
  277DOPC   D2A 3312   4.081   5.716   4.451
  277DOPC   C3A 3313   4.056   5.980   4.062
  277DOPC   C4A 3314   4.204   6.299   3.712
  277DOPC   C1B 3315   4.599   5.730   4.959
  277DOPC   D2B 3316   4.612   5.598   4.488
  277DOPC   C3B 3317   4.511   5.767   4.061
  277DOPC   C4B 3318   4.293   5.806   3.613
  278DOPC   NC3 3319  19.839   8.265   5.994
  278DOPC   PO4 3320  19.720   8.640   5.882
  278DOPC   GL1 3321  19.683   8.658   5.453
  278DOPC   GL2 3322  19.445   8.452   5.489
  278DOPC   C1A 3323  19.778   8.506   5.046
  278DOPC   D2A 3324  19.846   8.451   4.546
  278DOPC   C3A 3325  19.937   8.531   4.089
  278DOPC   C4A 3326   0.065   8.739   3.653
  278DOPC   C1B 3327  19.376   8.179   5.131
  278DOPC   D2B 3328  19.195   7.988   4.674
  278DOPC   C3B 3329  19.405   8.198   4.289
  278DOPC   C4B 3330  19.502   8.424   3.845
  279DOPC   NC3 3331  15.296   5.305   5.653
  279DOPC   PO4 3332  15.395   4.953   5.824
  279DOPC   GL1 3333  15.191   4.787   5.484
  279DOPC   GL2 3334  14.953   4.979   5.595
  279DOPC   C1A 3335  15.207   4.864   5.036
  279DOPC   D2A 3336  15.401   5.023   4.584
  279DOPC   C3A 3337  15.368   4.968   4.110
  279DOPC   C4A 3338  15.413   4.677   3.714
  279DOPC   C1B 3339  14.933   5.273   5.264
  279DOPC   D2B 3340  15.064   5.352   4.789
  279DOPC   C3B 3341  14.975   5.225   4.339
  279DOPC   C4B 3342  14.861   5.196   3.857
  280DOPC   NC3 3343   4.156   9.604   5.965
  280DOPC   PO4 3344   4.357   9.867   5.743
  280DOPC   GL1 3345   4.206   9.723   5.406
  280DOPC   GL2 3346   4.056   9.468   5.519
  280DOPC   C1A 3347   4.302   9.810   4.972
  280DOPC   D2A 3348   4.374   9.842   4.475
  280DOPC   C3A 3349   4.262   9.954   4.031
  280DOPC   C4A 3350   4.199   0.015   3.545
  280DOPC   C1B 3351   4.058   9.381   5.091
  280DOPC   D2B 3352   4.091   9.419   4.588
  280DOPC   C3B 3353   4.273   9.437   4.141
  280DOPC   C4B 3354   4.469   9.597   3.703
  281DOPC   NC3 3355   8.780   1.152   5.897
  281DOPC   PO4 3356   8.805   1.510   5.722
  281DOPC   GL1 3357   8.670   1.376   5.340
  281DOPC   GL2 3358   8.704   1.087   5.422
  281DOPC   C1A 3359   8.988   1.357   5.015
  281DOPC   D2A 3360   9.323   1.171   4.685
  281DOPC   C3A 3361   9.193   1.302   4.245
  281DOPC   C4A 3362   9.209   1.538   3.805
  281DOPC   C1B 3363   8.931   0.855   5.102
  281DOPC   D2B 3364   9.099   0.719   4.643
  281DOPC   C3B 3365   9.028   0.838   4.189
  281DOPC   C4B 3366   9.054   1.019   3.727
  282DOPC   NC3 3367   6.535   8.518   5.854
  282DOPC   PO4 3368   6.866   8.585   5.643
  282DOPC   GL1 3369   6.643   8.662   5.278
  282DOPC   GL2 3370   6.391   8.726   5.463
  282DOPC   C1A 3371   6.528   8.657   4.832
  282DOPC   D2A 3372   6.467   8.600   4.323
  282DOPC   C3A 3373   6.525   8.788   3.875
  282DOPC   C4A 3374   6.516   9.001   3.412
  282DOPC   C1B 3375   6.142   8.884   5.141
  282DOPC   D2B 3376   6.059   8.883   4.649
  282DOPC   C3B 3377   6.093   8.916   4.176
  282DOPC   C4B 3378   6.120   9.111   3.714
  283DOPC   NC3 3379  10.803   8.518   5.812
  283DOPC   PO4 3380  10.520   8.237   5.809
  283DOPC   GL1 3381  10.586   8.345   5.410
  283DOPC   GL2 3382  10.312   8.396   5.311
  283DOPC   C1A 3383  10.839   8.458   5.064
  283DOPC   D2A 3384  10.974   8.406   4.580
  283DOPC   C3A 3385  10.908   8.160   4.164
  283DOPC   C4A 3386  10.824   8.002   3.685
  283DOPC   C1B 3387  10.373   8.414   4.852
  283DOPC   D2B 3388  10.505   8.406   4.358
  283DOPC   C3B 3389  10.458   8.339   3.902
  283DOPC   C4B 3390  10.342   8.268   3.442
  284DOPC   NC3 3391   2.083   3.505   5.541
  284DOPC   PO4 3392   1.739   3.654   5.675
  284DOPC   GL1 3393   1.517   3.653   5.334
  284DOPC   GL2 3394   1.698   3.397   5.262
  284DOPC   C1A 3395   1.593   3.750   4.937
  284DOPC   D2A 3396   1.765   3.636   4.490
  284DOPC   C3A 3397   1.659   3.823   4.083
  284DOPC   C4A 3398   1.823   4.053   3.703
  284DOPC   C1B 3399   2.043   3.486   4.991
  284DOPC   D2B 3400   2.264   3.537   4.535
  284DOPC   C3B 3401   2.092   3.540   4.089
  284DOPC   C4B 3402   1.748   3.408   3.746
  285DOPC   NC3 3403  18.598   3.519   5.790
  285DOPC   PO4 3404  18.538   3.130   5.778
  285DOPC   GL1 3405  18.556   3.048   5.376
  285DOPC   GL2 3406  18.695   3.333   5.315
  285DOPC   C1A 3407  18.294   3.064   5.034
  285DOPC   D2A 3408  18.276   3.304   4.598
  285DOPC   C3A 3409  18.581   3.391   4.240
  285DOPC   C4A 3410  18.731   3.248   3.776
  285DOPC   C1B 3411  18.761   3.501   4.884
  285DOPC   D2B 3412  18.866   3.769   4.462
  285DOPC   C3B 3413  19.006   3.665   4.017
  285DOPC   C4B 3414  19.221   3.383   3.668
  286DOPC   NC3 3415   2.232   1.243   6.143
  286DOPC   PO4 3416   2.029   1.575   6.061
  286DOPC   GL1 3417   2.092   1.568   5.632
  286DOPC   GL2 3418   2.255   1.310   5.664
  286DOPC   C1A 3419   2.161   1.657   5.189
  286DOPC   D2A 3420   2.189   1.746   4.672
  286DOPC   C3A 3421   2.112   1.674   4.195
  286DOPC   C4A 3422   1.885   1.570   3.747
  286DOPC   C1B 3423   2.291   1.174   5.253
  286DOPC   D2B 3424   2.260   1.237   4.754
  286DOPC   C3B 3425   2.324   1.174   4.290
  286DOPC   C4B 3426   2.398   1.091   3.806
  287DOPC   NC3 3427   4.378   3.811   6.062
  287DOPC   PO4 3428   4.608   3.818   5.724
  287DOPC   GL1 3429   4.680   3.865   5.288
  287DOPC   GL2 3430   4.788   4.145   5.328
  287DOPC   C1A 3431   4.417   3.874   4.907
  287DOPC   D2A 3432   4.190   3.874   4.457
  287DOPC   C3A 3433   4.135   3.952   4.003
  287DOPC   C4A 3434   4.052   4.030   3.532
  287DOPC   C1B 3435   4.546   4.365   5.010
  287DOPC   D2B 3436   4.156   4.331   4.688
  287DOPC   C3B 3437   4.112   4.421   4.220
  287DOPC   C4B 3438   4.080   4.567   3.735
  288DOPC   NC3 3439  11.945   7.256   6.103
  288DOPC   PO4 3440  11.783   7.627   6.092
  288DOPC   GL1 3441  11.715   7.721   5.661
  288DOPC   GL2 3442  11.888   7.457   5.646
  288DOPC   C1A 3443  11.802   7.807   5.228
  288DOPC   D2A 3444  11.800   7.832   4.712
  288DOPC   C3A 3445  11.888   7.830   4.238
  288DOPC   C4A 3446  12.104   7.709   3.796
  288DOPC   C1B 3447  11.971   7.301   5.239
  288DOPC   D2B 3448  12.073   7.353   4.745
  288DOPC   C3B 3449  11.982   7.310   4.282
  288DOPC   C4B 3450  11.963   7.200   3.801
  289DOPC   NC3 3451  17.619   2.222   5.967
  289DOPC   PO4 3452  17.230   2.183   5.925
  289DOPC   GL1 3453  17.086   2.047   5.555
  289DOPC   GL2 3454  17.276   1.798   5.595
  289DOPC   C1A 3455  17.146   2.151   5.117
  289DOPC   D2A 3456  17.362   2.159   4.644
  289DOPC   C3A 3457  17.348   2.240   4.155
  289DOPC   C4A 3458  17.313   2.318   3.648
  289DOPC   C1B 3459  17.542   1.864   5.263
  289DOPC   D2B 3460  17.773   1.890   4.840
  289DOPC   C3B 3461  17.731   1.751   4.384
  289DOPC   C4B 3462  17.789   1.555   3.930
  290DOPC   NC3 3463  16.102   1.069   5.737
  290DOPC   PO4 3464  16.352   0.779   5.611
  290DOPC   GL1 3465  16.261   0.766   5.181
  290DOPC   GL2 3466  16.013   0.925   5.251
  290DOPC   C1A 3467  16.223   0.663   4.735
  290DOPC   D2A 3468  16.227   0.576   4.235
  290DOPC   C3A 3469  16.179   0.954   3.939
  290DOPC   C4A 3470  16.203   1.386   3.681
  290DOPC   C1B 3471  15.844   0.979   4.833
  290DOPC   D2B 3472  15.837   0.985   4.324
  290DOPC   C3B 3473  15.769   1.307   3.973
  290DOPC   C4B 3474  15.753   1.702   3.651
  291DOPC   NC3 3475   0.225   1.106   5.885
  291DOPC   PO4 3476   0.354   1.428   5.685
  291DOPC   GL1 3477   0.059   1.263   5.405
  291DOPC   GL2 3478   0.302   1.070   5.321
  291DOPC   C1A 3479  19.995   1.252   4.978
  291DOPC   D2A 3480   0.038   1.028   4.543
  291DOPC   C3A 3481   0.015   1.180   4.117
  291DOPC   C4A 3482   0.012   1.422   3.701
  291DOPC   C1B 3483   0.430   0.995   4.868
  291DOPC   D2B 3484   0.499   0.900   4.354
  291DOPC   C3B 3485   0.661   0.881   3.891
  291DOPC   C4B 3486   0.701   0.885   3.381
  292DOPC   NC3 3487  15.903   2.298   5.942
  292DOPC   PO4 3488  15.626   2.481   5.718
  292DOPC   GL1 3489  15.707   2.721   5.366
  292DOPC   GL2 3490  16.021   2.669   5.424
  292DOPC   C1A 3491  15.636   2.601   4.949
  292DOPC   D2A 3492  15.483   2.517   4.487
  292DOPC   C3A 3493  15.484   2.400   4.030
  292DOPC   C4A 3494  15.760   2.229   3.657
  292DOPC   C1B 3495  16.105   2.432   5.038
  292DOPC   D2B 3496  15.962   2.322   4.550
  292DOPC   C3B 3497  16.090   2.216   4.094
  292DOPC   C4B 3498  16.212   1.966   3.658
  293DOPC   NC3 3499   1.293   9.417   5.859
  293DOPC   PO4 3500   1.656   9.432   5.693
  293DOPC   GL1 3501   1.501   9.565   5.282
  293DOPC   GL2 3502   1.212   9.528   5.394
  293DOPC   C1A 3503   1.412   9.573   4.831
  293DOPC   D2A 3504   1.208   9.392   4.407
  293DOPC   C3A 3505   1.240   9.376   3.940
  293DOPC   C4A 3506   1.265   9.335   3.436
  293DOPC   C1B 3507   0.919   9.450   5.044
  293DOPC   D2B 3508   0.745   9.553   4.571
  293DOPC   C3B 3509   0.829   9.651   4.100
  293DOPC   C4B 3510   1.083   9.777   3.666
  294DOPC   NC3 3511  12.079   1.109   6.042
  294DOPC   PO4 3512  12.329   1.388   5.882
  294DOPC   GL1 3513  12.218   1.339   5.497
  294DOPC   GL2 3514  11.972   1.176   5.542
  294DOPC   C1A 3515  12.360   1.341   5.075
  294DOPC   D2A 3516  12.398   1.319   4.574
  294DOPC   C3A 3517  12.019   1.438   4.301
  294DOPC   C4A 3518  11.812   1.444   3.839
  294DOPC   C1B 3519  11.885   1.128   5.101
  294DOPC   D2B 3520  11.975   1.034   4.601
  294DOPC   C3B 3521  11.863   0.994   4.133
  294DOPC   C4B 3522  11.999   1.002   3.649
  295DOPC   NC3 3523   6.272   8.066   5.857
  295DOPC   PO4 3524   6.093   8.365   5.649
  295DOPC   GL1 3525   6.316   8.337   5.248
  295DOPC   GL2 3526   6.546   8.252   5.458
  295DOPC   C1A 3527   6.385   8.167   4.807
  295DOPC   D2A 3528   6.365   8.083   4.301
  295DOPC   C3A 3529   6.212   8.367   3.935
  295DOPC   C4A 3530   6.040   8.638   3.550
  295DOPC   C1B 3531   6.724   7.982   5.164
  295DOPC   D2B 3532   6.869   7.897   4.691
  295DOPC   C3B 3533   6.873   8.082   4.257
  295DOPC   C4B 3534   6.652   8.150   3.822
  296DOPC   NC3 3535  16.520   6.508   5.606
  296DOPC   PO4 3536  16.891   6.595   5.711
  296DOPC   GL1 3537  16.842   6.883   5.420
  296DOPC   GL2 3538  16.550   6.956   5.468
  296DOPC   C1A 3539  16.877   6.690   5.013
  296DOPC   D2A 3540  16.881   6.566   4.537
  296DOPC   C3A 3541  16.867   6.652   4.078
  296DOPC   C4A 3542  16.874   6.742   3.586
  296DOPC   C1B 3543  16.382   6.719   5.145
  296DOPC   D2B 3544  16.383   6.587   4.690
  296DOPC   C3B 3545  16.386   6.755   4.271
  296DOPC   C4B 3546  16.418   6.671   3.801
  297DOPC   NC3 3547  10.754   4.518   5.789
  297DOPC   PO4 3548  10.463   4.240   5.784
  297DOPC   GL1 3549  10.731   3.970   5.507
  297DOPC   GL2 3550  10.789   4.252   5.384
  297DOPC   C1A 3551  10.779   3.805   5.077
  297DOPC   D2A 3552  10.909   3.663   4.593
  297DOPC   C3A 3553  10.852   3.759   4.125
  297DOPC   C4A 3554  10.730   3.850   3.648
  297DOPC   C1B 3555  10.899   4.261   4.929
  297DOPC   D2B 3556  11.036   4.141   4.441
  297DOPC   C3B 3557  10.983   4.264   3.970
  297DOPC   C4B 3558  11.050   4.473   3.511
  298DOPC   NC3 3559   7.938   2.740   5.912
  298DOPC   PO4 3560   7.746   2.468   5.691
  298DOPC   GL1 3561   7.595   2.823   5.441
  298DOPC   GL2 3562   7.907   2.834   5.414
  298DOPC   C1A 3563   7.491   2.945   5.012
  298DOPC   D2A 3564   7.539   3.107   4.536
  298DOPC   C3A 3565   7.709   2.847   4.181
  298DOPC   C4A 3566   7.911   2.697   3.750
  298DOPC   C1B 3567   7.871   2.585   5.048
  298DOPC   D2B 3568   7.786   2.496   4.551
  298DOPC   C3B 3569   7.883   2.327   4.111
  298DOPC   C4B 3570   8.059   2.168   3.660
  299DOPC   NC3 3571   2.658   8.594   5.946
  299DOPC   PO4 3572   2.771   8.799   5.615
  299DOPC   GL1 3573   2.626   8.725   5.253
  299DOPC   GL2 3574   2.482   8.465   5.279
  299DOPC   C1A 3575   2.823   8.661   4.862
  299DOPC   D2A 3576   2.875   8.534   4.388
  299DOPC   C3A 3577   2.728   8.435   3.958
  299DOPC   C4A 3578   2.407   8.250   3.630
  299DOPC   C1B 3579   2.465   8.299   4.849
  299DOPC   D2B 3580   2.468   8.189   4.352
  299DOPC   C3B 3581   2.664   7.938   3.997
  299DOPC   C4B 3582   2.833   7.935   3.525
  300DOPC   NC3 3583   5.786   8.125   6.002
  300DOPC   PO4 3584   5.775   7.836   5.718
  300DOPC   GL1 3585   5.548   7.953   5.350
  300DOPC   GL2 3586   5.739   8.179   5.401
  300DOPC   C1A 3587   5.514   8.121   4.945
  300DOPC   D2A 3588   5.449   8.310   4.484
  300DOPC   C3A 3589   5.405   8.103   4.073
  300DOPC   C4A 3590   5.527   7.782   3.716
  300DOPC   C1B 3591   5.995   7.980   5.094
  300DOPC   D2B 3592   5.934   7.932   4.595
  300DOPC   C3B 3593   5.893   8.010   4.118
  300DOPC   C4B 3594   5.807   8.192   3.652
  301DOPC   NC3 3595   5.094   3.260   5.701
  301DOPC   PO4 3596   4.827   2.956   5.679
  301DOPC   GL1 3597   4.632   3.147   5.313
  301DOPC   GL2 3598   4.732   3.419   5.413
  301DOPC   C1A 3599   4.619   3.068   4.850
  301DOPC   D2A 3600   4.681   3.131   4.345
  301DOPC   C3A 3601   4.859   3.310   3.944
  301DOPC   C4A 3602   4.909   3.327   3.453
  301DOPC   C1B 3603   4.783   3.536   4.977
  301DOPC   D2B 3604   4.702   3.697   4.499
  301DOPC   C3B 3605   4.897   3.828   4.082
  301DOPC   C4B 3606   5.247   3.861   3.718
  302DOPC   NC3 3607   1.978   4.389   5.697
  302DOPC   PO4 3608   2.143   4.024   5.643
  302DOPC   GL1 3609   1.947   3.877   5.263
  302DOPC   GL2 3610   1.724   4.067   5.385
  302DOPC   C1A 3611   2.044   3.953   4.807
  302DOPC   D2A 3612   2.096   3.997   4.303
  302DOPC   C3A 3613   2.290   4.020   3.869
  302DOPC   C4A 3614   2.301   4.140   3.381
  302DOPC   C1B 3615   1.615   4.256   5.004
  302DOPC   D2B 3616   1.588   4.122   4.523
  302DOPC   C3B 3617   1.741   4.332   4.128
  302DOPC   C4B 3618   1.961   4.548   3.732
  303DOPC   NC3 3619  16.072   0.553   5.977
  303DOPC   PO4 3620  15.762   0.304   5.895
  303DOPC   GL1 3621  16.019   0.147   5.538
  303DOPC   GL2 3622  16.035   0.454   5.486
  303DOPC   C1A 3623  16.150   0.078   5.116
  303DOPC   D2A 3624  16.094   0.155   4.623
  303DOPC   C3A 3625  16.033   0.100   4.166
  303DOPC   C4A 3626  15.950   0.169   3.681
  303DOPC   C1B 3627  15.877   0.498   5.063
  303DOPC   D2B 3628  15.746   0.529   4.567
  303DOPC   C3B 3629  15.749   0.531   4.086
  303DOPC   C4B 3630  15.835   0.719   3.630
  304DOPC   NC3 3631  19.958   6.025   5.776
  304DOPC   PO4 3632   0.167   5.683   5.856
  304DOPC   GL1 3633   0.141   5.402   5.541
  304DOPC   GL2 3634   0.445   5.344   5.509
  304DOPC   C1A 3635   0.127   5.375   5.102
  304DOPC   D2A 3636   0.363   5.388   4.660
  304DOPC   C3A 3637   0.375   5.533   4.228
  304DOPC   C4A 3638   0.292   5.600   3.748
  304DOPC   C1B 3639   0.632   5.487   5.099
  304DOPC   D2B 3640   0.810   5.615   4.620
  304DOPC   C3B 3641   0.770   5.846   4.196
  304DOPC   C4B 3642   0.612   6.000   3.741
  305DOPC   NC3 3643   5.009   7.592   5.878
  305DOPC   PO4 3644   5.316   7.569   5.616
  305DOPC   GL1 3645   5.352   7.285   5.265
  305DOPC   GL2 3646   5.112   7.117   5.346
  305DOPC   C1A 3647   5.353   7.272   4.815
  305DOPC   D2A 3648   5.128   7.368   4.384
  305DOPC   C3A 3649   5.162   7.441   3.921
  305DOPC   C4A 3650   5.172   7.552   3.436
  305DOPC   C1B 3651   4.924   7.013   4.930
  305DOPC   D2B 3652   4.752   6.983   4.440
  305DOPC   C3B 3653   4.776   7.052   3.952
  305DOPC   C4B 3654   4.734   6.954   3.437
  306DOPC   NC3 3655   1.540   8.465   5.719
  306DOPC   PO4 3656   1.930   8.570   5.778
  306DOPC   GL1 3657   2.143   8.731   5.397
  306DOPC   GL2 3658   1.939   8.507   5.291
  306DOPC   C1A 3659   2.269   8.759   4.971
  306DOPC   D2A 3660   2.382   8.682   4.488
  306DOPC   C3A 3661   2.245   8.602   4.042
  306DOPC   C4A 3662   1.993   8.551   3.621
  306DOPC   C1B 3663   1.952   8.382   4.853
  306DOPC   D2B 3664   1.945   8.319   4.348
  306DOPC   C3B 3665   2.115   8.048   3.992
  306DOPC   C4B 3666   2.336   7.740   3.661
  307DOPC   NC3 3667  18.292   5.758   6.057
  307DOPC   PO4 3668  18.224   5.493   5.755
  307DOPC   GL1 3669  18.373   5.601   5.320
  307DOPC   GL2 3670  18.265   5.875   5.428
  307DOPC   C1A 3671  18.451   5.659   4.857
  307DOPC   D2A 3672  18.489   5.734   4.358
  307DOPC   C3A 3673  18.279   5.659   3.934
  307DOPC   C4A 3674  17.968   5.472   3.584
  307DOPC   C1B 3675  18.377   6.118   5.069
  307DOPC   D2B 3676  18.402   6.333   4.612
  307DOPC   C3B 3677  18.276   6.175   4.184
  307DOPC   C4B 3678  18.141   6.179   3.707
  308DOPC   NC3 3679   8.069   9.449   6.019
  308DOPC   PO4 3680   8.440   9.460   5.869
  308DOPC   GL1 3681   8.339   9.388   5.435
  308DOPC   GL2 3682   8.118   9.595   5.539
  308DOPC   C1A 3683   8.387   9.475   4.975
  308DOPC   D2A 3684   8.401   9.465   4.461
  308DOPC   C3A 3685   8.223   9.314   4.038
  308DOPC   C4A 3686   7.962   9.233   3.618
  308DOPC   C1B 3687   8.114   9.852   5.171
  308DOPC   D2B 3688   8.258   9.911   4.686
  308DOPC   C3B 3689   8.109   9.835   4.237
  308DOPC   C4B 3690   7.901   9.734   3.786
  309DOPC   NC3 3691  13.493   0.475   5.868
  309DOPC   PO4 3692  13.607   0.779   5.648
  309DOPC   GL1 3693  13.560   0.575   5.282
  309DOPC   GL2 3694  13.283   0.451   5.400
  309DOPC   C1A 3695  13.648   0.593   4.827
  309DOPC   D2A 3696  13.706   0.572   4.305
  309DOPC   C3A 3697  13.765   0.418   3.859
  309DOPC   C4A 3698  13.726   0.435   3.361
  309DOPC   C1B 3699  13.111   0.482   4.988
  309DOPC   D2B 3700  13.247   0.595   4.515
  309DOPC   C3B 3701  13.288   0.367   4.100
  309DOPC   C4B 3702  13.349   0.126   3.665
  310DOPC   NC3 3703   5.149   2.538   5.636
  310DOPC   PO4 3704   4.782   2.380   5.664
  310DOPC   GL1 3705   4.842   2.393   5.279
  310DOPC   GL2 3706   4.857   2.701   5.273
  310DOPC   C1A 3707   4.971   2.225   4.902
  310DOPC   D2A 3708   4.909   2.194   4.411
  310DOPC   C3A 3709   5.014   2.375   3.982
  310DOPC   C4A 3710   5.288   2.538   3.604
  310DOPC   C1B 3711   5.004   2.736   4.861
  310DOPC   D2B 3712   4.996   2.710   4.366
  310DOPC   C3B 3713   5.156   2.888   3.964
  310DOPC   C4B 3714   5.321   3.040   3.525
  311DOPC   NC3 3715  15.770   4.679   5.687
  311DOPC   PO4 3716  15.486   4.396   5.630
  311DOPC   GL1 3717  15.563   4.624   5.253
  311DOPC   GL2 3718  15.846   4.493   5.268
  311DOPC   C1A 3719  15.627   4.617   4.817
  311DOPC   D2A 3720  15.760   4.704   4.340
  311DOPC   C3A 3721  15.671   4.368   4.014
  311DOPC   C4A 3722  15.648   4.272   3.527
  311DOPC   C1B 3723  15.823   4.126   5.020
  311DOPC   D2B 3724  15.651   3.822   4.663
  311DOPC   C3B 3725  15.869   3.973   4.269
  311DOPC   C4B 3726  16.061   4.067   3.812
  312DOPC   NC3 3727  18.025   6.799   5.878
  312DOPC   PO4 3728  18.383   6.603   5.889
  312DOPC   GL1 3729  18.349   6.364   5.522
  312DOPC   GL2 3730  18.330   6.664   5.397
  312DOPC   C1A 3731  17.962   6.225   5.338
  312DOPC   D2A 3732  17.669   6.192   4.932
  312DOPC   C3A 3733  17.575   6.108   4.477
  312DOPC   C4A 3734  17.554   6.090   3.977
  312DOPC   C1B 3735  18.146   6.570   4.994
  312DOPC   D2B 3736  17.911   6.483   4.558
  312DOPC   C3B 3737  18.034   6.616   4.122
  312DOPC   C4B 3738  18.170   6.821   3.691
  313DOPC   NC3 3739   2.521   9.574   6.237
  313DOPC   PO4 3740   2.719   9.607   5.895
  313DOPC   GL1 3741   2.463   9.633   5.546
  313DOPC   GL2 3742   2.595   9.905   5.482
  313DOPC   C1A 3743   2.434   9.535   5.129
  313DOPC   D2A 3744   2.654   9.544   4.678
  313DOPC   C3A 3745   2.587   9.444   4.229
  313DOPC   C4A 3746   2.564   9.354   3.750
  313DOPC   C1B 3747   2.774   9.909   5.071
  313DOPC   D2B 3748   2.974   9.982   4.611
  313DOPC   C3B 3749   2.932   9.831   4.169
  313DOPC   C4B 3750   2.955   9.713   3.684
  314DOPC   NC3 3751   3.427   5.192   5.937
  314DOPC   PO4 3752   3.119   5.133   5.692
  314DOPC   GL1 3753   3.320   5.297   5.371
  314DOPC   GL2 3754   3.586   5.177   5.469
  314DOPC   C1A 3755   3.271   5.112   4.982
  314DOPC   D2A 3756   3.160   4.843   4.566
  314DOPC   C3A 3757   3.337   5.022   4.169
  314DOPC   C4A 3758   3.410   5.332   3.789
  314DOPC   C1B 3759   3.815   4.991   5.131
  314DOPC   D2B 3760   3.935   4.785   4.691
  314DOPC   C3B 3761   3.936   4.898   4.223
  314DOPC   C4B 3762   4.042   5.107   3.773
  315DOPC   NC3 3763  16.639   2.863   5.809
  315DOPC   PO4 3764  16.911   2.579   5.753
  315DOPC   GL1 3765  16.798   2.791   5.378
  315DOPC   GL2 3766  16.506   2.682   5.405
  315DOPC   C1A 3767  16.865   2.948   4.962
  315DOPC   D2A 3768  16.933   2.690   4.542
  315DOPC   C3A 3769  16.847   2.950   4.165
  315DOPC   C4A 3770  16.633   2.874   3.725
  315DOPC   C1B 3771  16.366   2.860   5.035
  315DOPC   D2B 3772  16.487   2.955   4.557
  315DOPC   C3B 3773  16.385   2.711   4.163
  315DOPC   C4B 3774  16.479   2.377   3.796
  316DOPC   NC3 3775  16.734   2.145   5.908
  316DOPC   PO4 3776  16.434   2.351   5.741
  316DOPC   GL1 3777  16.745   2.303   5.432
  316DOPC   GL2 3778  16.649   2.017   5.418
  316DOPC   C1A 3779  16.734   2.470   5.041
  316DOPC   D2A 3780  16.443   2.464   4.648
  316DOPC   C3A 3781  16.687   2.325   4.285
  316DOPC   C4A 3782  16.951   2.510   3.929
  316DOPC   C1B 3783  16.477   2.027   4.994
  316DOPC   D2B 3784  16.339   1.972   4.504
  316DOPC   C3B 3785  16.523   1.897   4.072
  316DOPC   C4B 3786  16.905   2.014   3.775
  317DOPC   NC3 3787   8.434   3.664   5.972
  317DOPC   PO4 3788   8.184   3.875   5.731
  317DOPC   GL1 3789   8.195   3.731   5.328
  317DOPC   GL2 3790   8.176   3.437   5.414
  317DOPC   C1A 3791   8.312   3.683   4.894
  317DOPC   D2A 3792   8.375   3.563   4.396
  317DOPC   C3A 3793   8.679   3.587   4.009
  317DOPC   C4A 3794   8.965   3.752   3.619
  317DOPC   C1B 3795   8.349   3.197   5.048
  317DOPC   D2B 3796   8.468   3.062   4.564
  317DOPC   C3B 3797   8.438   3.125   4.079
  317DOPC   C4B 3798   8.371   3.124   3.590
  318DOPC   NC3 3799   1.468   1.224   5.920
  318DOPC   PO4 3800   1.833   1.173   5.772
  318DOPC   GL1 3801   1.764   1.400   5.392
  318DOPC   GL2 3802   1.454   1.387   5.449
  318DOPC   C1A 3803   1.783   1.417   4.948
  318DOPC   D2A 3804   1.764   1.428   4.449
  318DOPC   C3A 3805   1.632   1.233   4.027
  318DOPC   C4A 3806   1.513   1.201   3.534
  318DOPC   C1B 3807   1.160   1.481   5.102
  318DOPC   D2B 3808   0.855   1.580   4.701
  318DOPC   C3B 3809   0.877   1.383   4.266
  318DOPC   C4B 3810   1.121   1.171   3.882
  319DOPC   NC3 3811   1.567   9.912   5.595
  319DOPC   PO4 3812   1.166   9.931   5.652
  319DOPC   GL1 3813   0.896   9.868   5.309
  319DOPC   GL2 3814   0.787   0.156   5.315
  319DOPC   C1A 3815   1.050   9.911   4.885
  319DOPC   D2A 3816   1.180   9.900   4.402
  319DOPC   C3A 3817   1.033   0.144   4.024
  319DOPC   C4A 3818   0.858   0.431   3.655
  319DOPC   C1B 3819   0.789   0.351   4.886
  319DOPC   D2B 3820   0.873   0.511   4.387
  319DOPC   C3B 3821   1.173   0.653   4.028
  319DOPC   C4B 3822   1.607   0.729   3.767
  320DOPC   NC3 3823   1.144   7.009   5.855
  320DOPC   PO4 3824   0.802   7.150   5.677
  320DOPC   GL1 3825   0.876   7.231   5.219
  320DOPC   GL2 3826   0.956   6.930   5.230
  320DOPC   C1A 3827   1.021   7.272   4.795
  320DOPC   D2A 3828   1.199   7.289   4.328
  320DOPC   C3A 3829   1.020   7.204   3.893
  320DOPC   C4A 3830   1.020   7.259   3.395
  320DOPC   C1B 3831   1.095   6.776   4.805
  320DOPC   D2B 3832   1.211   6.769   4.300
  320DOPC   C3B 3833   1.209   6.706   3.820
  320DOPC   C4B 3834   1.311   6.392   3.438
  321DOPC   NC3 3835  13.767   4.938   5.752
  321DOPC   PO4 3836  13.506   5.228   5.843
  321DOPC   GL1 3837  13.531   5.194   5.391
  321DOPC   GL2 3838  13.371   4.932   5.457
  321DOPC   C1A 3839  13.666   5.242   4.945
  321DOPC   D2A 3840  13.715   5.218   4.437
  321DOPC   C3A 3841  13.722   5.388   3.995
  321DOPC   C4A 3842  13.654   5.604   3.547
  321DOPC   C1B 3843  13.540   4.746   5.086
  321DOPC   D2B 3844  13.783   4.746   4.652
  321DOPC   C3B 3845  13.571   4.699   4.234
  321DOPC   C4B 3846  13.273   4.693   3.830
  322DOPC   NC3 3847  14.641   6.468   5.735
  322DOPC   PO4 3848  14.606   6.088   5.653
  322DOPC   GL1 3849  14.359   6.206   5.363
  322DOPC   GL2 3850  14.297   6.492   5.404
  322DOPC   C1A 3851  14.513   6.175   4.943
  322DOPC   D2A 3852  14.612   6.126   4.445
  322DOPC   C3A 3853  14.624   6.438   4.073
  322DOPC   C4A 3854  14.589   6.847   3.770
  322DOPC   C1B 3855  14.352   6.657   4.992
  322DOPC   D2B 3856  14.373   6.583   4.501
  322DOPC   C3B 3857  14.250   6.840   4.135
  322DOPC   C4B 3858  14.089   6.979   3.688
  323DOPC   NC3 3859   1.028   9.010   6.039
  323DOPC   PO4 3860   1.034   8.755   5.733
  323DOPC   GL1 3861   1.262   8.797   5.415
  323DOPC   GL2 3862   1.317   9.105   5.498
  323DOPC   C1A 3863   1.094   8.725   4.995
  323DOPC   D2A 3864   1.015   8.615   4.512
  323DOPC   C3A 3865   0.959   8.570   4.049
  323DOPC   C4A 3866   0.952   8.499   3.561
  323DOPC   C1B 3867   1.355   9.155   5.088
  323DOPC   D2B 3868   1.390   8.968   4.635
  323DOPC   C3B 3869   1.307   8.933   4.189
  323DOPC   C4B 3870   1.155   8.925   3.726
  324DOPC   NC3 3871  18.255   0.371   5.577
  324DOPC   PO4 3872  17.899   0.217   5.465
  324DOPC   GL1 3873  17.793   0.552   5.188
  324DOPC   GL2 3874  17.994   0.712   5.348
  324DOPC   C1A 3875  17.891   0.643   4.761
  324DOPC   D2A 3876  17.909   0.712   4.250
  324DOPC   C3A 3877  17.843   0.512   3.814
  324DOPC   C4A 3878  17.801   0.345   3.339
  324DOPC   C1B 3879  18.351   0.614   5.095
  324DOPC   D2B 3880  18.688   0.606   4.721
  324DOPC   C3B 3881  18.584   0.599   4.261
  324DOPC   C4B 3882  18.353   0.603   3.830
  325DOPC   NC3 3883  17.191   3.835   6.020
  325DOPC   PO4 3884  17.190   4.120   5.738
  325DOPC   GL1 3885  17.310   4.004   5.342
  325DOPC   GL2 3886  17.608   4.111   5.385
  325DOPC   C1A 3887  17.038   3.904   4.979
  325DOPC   D2A 3888  16.769   3.870   4.540
  325DOPC   C3A 3889  16.981   4.004   4.130
  325DOPC   C4A 3890  17.356   4.168   3.819
  325DOPC   C1B 3891  17.757   4.282   4.981
  325DOPC   D2B 3892  17.821   4.441   4.497
  325DOPC   C3B 3893  17.715   4.470   4.030
  325DOPC   C4B 3894  17.560   4.593   3.557
  326DOPC   NC3 3895  13.377   1.379   5.808
  326DOPC   PO4 3896  13.165   1.041   5.783
  326DOPC   GL1 3897  13.264   0.923   5.357
  326DOPC   GL2 3898  13.488   1.153   5.393
  326DOPC   C1A 3899  13.264   0.957   4.907
  326DOPC   D2A 3900  13.099   1.083   4.447
  326DOPC   C3A 3901  13.234   1.064   3.995
  326DOPC   C4A 3902  13.335   1.135   3.517
  326DOPC   C1B 3903  13.717   1.180   5.009
  326DOPC   D2B 3904  13.624   1.035   4.539
  326DOPC   C3B 3905  13.752   1.070   4.096
  326DOPC   C4B 3906  13.746   1.419   3.758
  327DOPC   NC3 3907  13.523   9.617   5.746
  327DOPC   PO4 3908  13.127   9.524   5.809
  327DOPC   GL1 3909  13.281   9.266   5.545
  327DOPC   GL2 3910  13.195   9.026   5.434
  327DOPC   C1A 3911  13.556   9.413   5.234
  327DOPC   D2A 3912  13.660   9.377   4.750
  327DOPC   C3A 3913  13.615   9.242   4.311
  327DOPC   C4A 3914  13.522   9.163   3.819
  327DOPC   C1B 3915  13.394   8.947   5.012
  327DOPC   D2B 3916  13.552   8.787   4.553
  327DOPC   C3B 3917  13.690   8.763   4.096
  327DOPC   C4B 3918  13.696   8.741   3.593
  328DOPC   NC3 3919   0.111   9.665   1.246
  328DOPC   PO4 3920   0.160   0.059   1.341
  328DOPC   GL1 3921   0.107   0.024   1.774
  328DOPC   GL2 3922  19.814   0.143   1.788
  328DOPC   C1A 3923   0.138   9.600   1.952
  328DOPC   D2A 3924   0.232   9.156   2.202
  328DOPC   C3A 3925   0.139   9.153   2.668
  328DOPC   C4A 3926  19.981   9.231   3.138
  328DOPC   C1B 3927  19.513   0.087   2.156
  328DOPC   D2B 3928  19.191   0.116   2.578
  328DOPC   C3B 3929  19.017   9.887   2.976
  328DOPC   C4B 3930  19.028   9.582   3.379
  329DOPC   NC3 3931  13.494   1.140   1.129
  329DOPC   PO4 3932  13.733   1.312   1.392
  329DOPC   GL1 3933  13.378   1.387   1.647
  329DOPC   GL2 3934  13.421   1.101   1.690
  329DOPC   C1A 3935  13.180   1.369   2.022
  329DOPC   D2A 3936  13.207   1.223   2.476
  329DOPC   C3A 3937  13.398   1.252   2.896
  329DOPC   C4A 3938  13.706   1.356   3.262
  329DOPC   C1B 3939  13.595   1.074   2.095
  329DOPC   D2B 3940  13.701   0.980   2.573
  329DOPC   C3B 3941  13.716   0.875   3.041
  329DOPC   C4B 3942  13.788   0.910   3.541
  330DOPC   NC3 3943  10.624   1.603   1.097
  330DOPC   PO4 3944  10.532   1.891   1.366
  330DOPC   GL1 3945  10.839   1.925   1.662
  330DOPC   GL2 3946  10.881   2.214   1.676
  330DOPC   C1A 3947  10.730   1.709   2.047
  330DOPC   D2A 3948  10.450   1.515   2.432
  330DOPC   C3A 3949  10.275   1.601   2.873
  330DOPC   C4A 3950  10.006   1.560   3.290
  330DOPC   C1B 3951  10.720   2.223   2.095
  330DOPC   D2B 3952  10.604   2.033   2.558
  330DOPC   C3B 3953  10.425   2.105   3.000
  330DOPC   C4B 3954  10.037   2.245   3.287
  331DOPC   NC3 3955  10.214   5.675   1.274
  331DOPC   PO4 3956  10.504   5.423   1.379
  331DOPC   GL1 3957  10.666   5.612   1.711
  331DOPC   GL2 3958  10.471   5.853   1.669
  331DOPC   C1A 3959  10.672   5.624   2.146
  331DOPC   D2A 3960  10.686   5.762   2.625
  331DOPC   C3A 3961  10.445   5.699   3.004
  331DOPC   C4A 3962  10.013   5.712   3.240
  331DOPC   C1B 3963  10.254   5.914   2.057
  331DOPC   D2B 3964  10.154   5.778   2.532
  331DOPC   C3B 3965  10.067   6.086   2.881
  331DOPC   C4B 3966  10.194   6.214   3.353
  332DOPC   NC3 3967  16.690   4.775   1.114
  332DOPC   PO4 3968  16.529   4.553   1.403
  332DOPC   GL1 3969  16.496   4.851   1.664
  332DOPC   GL2 3970  16.629   5.072   1.475
  332DOPC   C1A 3971  16.666   4.796   2.097
  332DOPC   D2A 3972  16.700   4.820   2.613
  332DOPC   C3A 3973  16.526   4.782   3.067
  332DOPC   C4A 3974  16.506   4.591   3.540
  332DOPC   C1B 3975  16.672   5.254   1.860
  332DOPC   D2B 3976  16.652   5.273   2.359
  332DOPC   C3B 3977  16.574   5.279   2.829
  332DOPC   C4B 3978  16.426   5.416   3.284
  333DOPC   NC3 3979  17.347   1.184   1.271
  333DOPC   PO4 3980  17.687   1.079   1.449
  333DOPC   GL1 3981  17.541   1.286   1.808
  333DOPC   GL2 3982  17.244   1.268   1.716
  333DOPC   C1A 3983  17.512   1.435   2.235
  333DOPC   D2A 3984  17.426   1.680   2.676
  333DOPC   C3A 3985  17.507   1.576   3.119
  333DOPC   C4A 3986  17.835   1.703   3.451
  333DOPC   C1B 3987  17.057   1.242   2.105
  333DOPC   D2B 3988  17.197   1.233   2.588
  333DOPC   C3B 3989  17.241   1.102   3.037
  333DOPC   C4B 3990  17.078   0.915   3.463
  334DOPC   NC3 3991   9.257   3.897   0.902
  334DOPC   PO4 3992   9.063   3.807   1.229
  334DOPC   GL1 3993   9.068   4.089   1.527
  334DOPC   GL2 3994   8.751   4.159   1.436
  334DOPC   C1A 3995   9.172   3.874   1.909
  334DOPC   D2A 3996   9.048   3.673   2.365
  334DOPC   C3A 3997   8.960   3.741   2.823
  334DOPC   C4A 3998   8.741   3.990   3.186
  334DOPC   C1B 3999   8.467   4.150   1.791
  334DOPC   D2B 4000   8.401   4.131   2.299
  334DOPC   C3B 4001   8.387   4.071   2.775
  334DOPC   C4B 4002   8.234   4.033   3.257
  335DOPC   NC3 4003  15.909   9.566   0.988
  335DOPC   PO4 4004  15.817   9.880   1.204
  335DOPC   GL1 4005  15.643   9.774   1.565
  335DOPC   GL2 4006  15.522   9.501   1.466
  335DOPC   C1A 4007  15.859   9.633   1.944
  335DOPC   D2A 4008  16.031   9.437   2.383
  335DOPC   C3A 4009  16.095   9.565   2.838
  335DOPC   C4A 4010  15.979   9.925   3.177
  335DOPC   C1B 4011  15.569   9.201   1.829
  335DOPC   D2B 4012  15.738   9.014   2.279
  335DOPC   C3B 4013  15.773   9.147   2.721
  335DOPC   C4B 4014  15.730   9.359   3.168
  336DOPC   NC3 4015   4.663   9.655   1.271
  336DOPC   PO4 4016   4.987   9.418   1.331
  336DOPC   GL1 4017   5.196   9.162   1.624
  336DOPC   GL2 4018   4.944   9.189   1.788
  336DOPC   C1A 4019   5.436   9.193   1.991
  336DOPC   D2A 4020   5.446   9.247   2.500
  336DOPC   C3A 4021   5.115   9.331   2.847
  336DOPC   C4A 4022   4.908   9.417   3.304
  336DOPC   C1B 4023   5.005   9.361   2.204
  336DOPC   D2B 4024   4.964   9.727   2.552
  336DOPC   C3B 4025   5.066   9.877   3.001
  336DOPC   C4B 4026   5.082   0.126   3.446
  337DOPC   NC3 4027   2.455   8.980   1.341
  337DOPC   PO4 4028   2.635   8.640   1.200
  337DOPC   GL1 4029   2.864   8.535   1.579
  337DOPC   GL2 4030   2.857   8.831   1.593
  337DOPC   C1A 4031   3.033   8.523   1.979
  337DOPC   D2A 4032   3.246   8.483   2.420
  337DOPC   C3A 4033   2.991   8.532   2.816
  337DOPC   C4A 4034   2.856   8.855   3.176
  337DOPC   C1B 4035   2.699   8.970   1.982
  337DOPC   D2B 4036   2.579   9.238   2.388
  337DOPC   C3B 4037   2.668   9.201   2.842
  337DOPC   C4B 4038   2.482   9.186   3.294
  338DOPC   NC3 4039   8.804   8.123   1.145
  338DOPC   PO4 4040   8.612   8.462   1.239
  338DOPC   GL1 4041   8.677   8.535   1.664
  338DOPC   GL2 4042   8.810   8.248   1.624
  338DOPC   C1A 4043   8.780   8.515   2.105
  338DOPC   D2A 4044   8.872   8.531   2.609
  338DOPC   C3A 4045   8.883   8.418   3.074
  338DOPC   C4A 4046   8.991   8.304   3.549
  338DOPC   C1B 4047   8.690   7.951   1.938
  338DOPC   D2B 4048   8.627   7.747   2.395
  338DOPC   C3B 4049   8.580   7.972   2.821
  338DOPC   C4B 4050   8.449   8.182   3.262
  339DOPC   NC3 4051  13.121   5.032   0.915
  339DOPC   PO4 4052  12.979   4.827   1.224
  339DOPC   GL1 4053  12.905   4.981   1.604
  339DOPC   GL2 4054  12.643   4.827   1.614
  339DOPC   C1A 4055  13.089   4.830   1.986
  339DOPC   D2A 4056  13.188   4.924   2.470
  339DOPC   C3A 4057  13.041   5.022   2.908
  339DOPC   C4A 4058  13.045   4.952   3.401
  339DOPC   C1B 4059  12.590   4.844   2.049
  339DOPC   D2B 4060  12.661   5.039   2.516
  339DOPC   C3B 4061  12.553   4.760   2.887
  339DOPC   C4B 4062  12.456   4.395   3.219
  340DOPC   NC3 4063  10.723   8.904   1.009
  340DOPC   PO4 4064  10.778   9.271   1.164
  340DOPC   GL1 4065  11.007   9.070   1.453
  340DOPC   GL2 4066  10.769   8.894   1.525
  340DOPC   C1A 4067  11.107   9.103   1.846
  340DOPC   D2A 4068  10.962   9.206   2.309
  340DOPC   C3A 4069  10.739   9.268   2.727
  340DOPC   C4A 4070  10.445   9.254   3.142
  340DOPC   C1B 4071  10.644   8.909   1.969
  340DOPC   D2B 4072  10.536   8.853   2.469
  340DOPC   C3B 4073  10.640   8.805   2.938
  340DOPC   C4B 4074  10.623   8.701   3.422
  341DOPC   NC3 4075   4.407   7.143   0.961
  341DOPC   PO4 4076   4.750   7.121   1.167
  341DOPC   GL1 4077   4.520   6.919   1.440
  341DOPC   GL2 4078   4.312   7.142   1.423
  341DOPC   C1A 4079   4.538   6.911   1.852
  341DOPC   D2A 4080   4.477   7.118   2.292
  341DOPC   C3A 4081   4.491   7.093   2.750
  341DOPC   C4A 4082   4.345   7.194   3.199
  341DOPC   C1B 4083   4.410   7.404   1.772
  341DOPC   D2B 4084   4.371   7.623   2.221
  341DOPC   C3B 4085   4.384   7.714   2.679
  341DOPC   C4B 4086   4.360   7.794   3.161
  342DOPC   NC3 4087  14.045   5.888   1.094
  342DOPC   PO4 4088  13.817   5.554   1.097
  342DOPC   GL1 4089  13.689   5.440   1.501
  342DOPC   GL2 4090  13.386   5.492   1.409
  342DOPC   C1A 4091  13.658   5.594   1.918
  342DOPC   D2A 4092  13.541   5.702   2.395
  342DOPC   C3A 4093  13.699   5.938   2.770
  342DOPC   C4A 4094  13.816   6.190   3.187
  342DOPC   C1B 4095  13.158   5.656   1.782
  342DOPC   D2B 4096  13.042   5.807   2.252
  342DOPC   C3B 4097  13.165   5.869   2.717
  342DOPC   C4B 4098  13.398   5.868   3.166
  343DOPC   NC3 4099  12.864   6.787   1.087
  343DOPC   PO4 4100  12.506   6.724   1.255
  343DOPC   GL1 4101  12.451   6.922   1.658
  343DOPC   GL2 4102  12.607   7.168   1.528
  343DOPC   C1A 4103  12.402   6.953   2.118
  343DOPC   D2A 4104  12.361   7.066   2.608
  343DOPC   C3A 4105  12.335   6.990   3.082
  343DOPC   C4A 4106  12.290   6.870   3.569
  343DOPC   C1B 4107  12.607   7.401   1.904
  343DOPC   D2B 4108  12.603   7.495   2.406
  343DOPC   C3B 4109  12.671   7.369   2.868
  343DOPC   C4B 4110  12.812   7.147   3.299
  344DOPC   NC3 4111  14.286   8.844   1.151
  344DOPC   PO4 4112  14.069   9.185   1.204
  344DOPC   GL1 4113  14.258   9.303   1.568
  344DOPC   GL2 4114  14.432   9.051   1.541
  344DOPC   C1A 4115  14.140   9.244   1.997
  344DOPC   D2A 4116  13.991   9.117   2.470
  344DOPC   C3A 4117  14.124   9.205   2.925
  344DOPC   C4A 4118  14.383   9.240   3.351
  344DOPC   C1B 4119  14.246   8.760   1.822
  344DOPC   D2B 4120  14.275   8.632   2.308
  344DOPC   C3B 4121  14.197   8.716   2.776
  344DOPC   C4B 4122  14.100   8.805   3.267
  345DOPC   NC3 4123   5.084   7.519   1.159
  345DOPC   PO4 4124   5.272   7.163   1.200
  345DOPC   GL1 4125   5.203   6.959   1.581
  345DOPC   GL2 4126   4.924   7.062   1.612
  345DOPC   C1A 4127   5.379   7.133   1.930
  345DOPC   D2A 4128   5.343   7.463   2.298
  345DOPC   C3A 4129   5.246   7.324   2.732
  345DOPC   C4A 4130   5.115   7.130   3.156
  345DOPC   C1B 4131   4.881   7.279   2.024
  345DOPC   D2B 4132   4.818   7.494   2.490
  345DOPC   C3B 4133   4.771   7.483   2.977
  345DOPC   C4B 4134   4.672   7.470   3.477
  346DOPC   NC3 4135  15.771   3.985   1.451
  346DOPC   PO4 4136  16.138   3.836   1.389
  346DOPC   GL1 4137  16.354   4.121   1.592
  346DOPC   GL2 4138  16.137   4.317   1.508
  346DOPC   C1A 4139  16.317   4.154   2.019
  346DOPC   D2A 4140  16.297   4.545   2.334
  346DOPC   C3A 4141  16.140   4.570   2.769
  346DOPC   C4A 4142  16.099   4.444   3.238
  346DOPC   C1B 4143  16.007   4.541   1.882
  346DOPC   D2B 4144  15.811   4.383   2.338
  346DOPC   C3B 4145  15.630   4.340   2.785
  346DOPC   C4B 4146  15.293   4.261   3.159
  347DOPC   NC3 4147   0.991   4.216   1.274
  347DOPC   PO4 4148   1.298   3.965   1.240
  347DOPC   GL1 4149   1.417   4.073   1.647
  347DOPC   GL2 4150   1.202   4.264   1.694
  347DOPC   C1A 4151   1.653   4.149   2.030
  347DOPC   D2A 4152   1.538   4.090   2.528
  347DOPC   C3A 4153   1.449   4.230   2.980
  347DOPC   C4A 4154   1.391   4.488   3.419
  347DOPC   C1B 4155   1.218   4.366   2.138
  347DOPC   D2B 4156   1.233   4.522   2.623
  347DOPC   C3B 4157   1.051   4.539   3.047
  347DOPC   C4B 4158   1.004   4.160   3.386
  348DOPC   NC3 4159  16.653   1.661   1.208
  348DOPC   PO4 4160  16.939   1.557   1.471
  348DOPC   GL1 4161  17.028   1.977   1.570
  348DOPC   GL2 4162  16.765   2.046   1.449
  348DOPC   C1A 4163  16.908   2.052   1.986
  348DOPC   D2A 4164  16.631   1.943   2.394
  348DOPC   C3A 4165  16.543   1.845   2.848
  348DOPC   C4A 4166  16.643   1.878   3.327
  348DOPC   C1B 4167  16.450   2.012   1.773
  348DOPC   D2B 4168  16.225   2.175   2.190
  348DOPC   C3B 4169  16.267   2.230   2.653
  348DOPC   C4B 4170  16.251   2.191   3.154
  349DOPC   NC3 4171   5.129   3.107   1.071
  349DOPC   PO4 4172   4.983   3.448   1.215
  349DOPC   GL1 4173   5.368   3.317   1.435
  349DOPC   GL2 4174   5.123   3.144   1.552
  349DOPC   C1A 4175   5.528   3.163   1.813
  349DOPC   D2A 4176   5.390   2.945   2.246
  349DOPC   C3A 4177   5.282   2.836   2.686
  349DOPC   C4A 4178   5.107   2.768   3.143
  349DOPC   C1B 4179   5.152   2.787   1.840
  349DOPC   D2B 4180   5.236   2.425   2.200
  349DOPC   C3B 4181   5.312   2.322   2.657
  349DOPC   C4B 4182   5.425   2.354   3.132
  350DOPC   NC3 4183  12.579   6.076   1.223
  350DOPC   PO4 4184  12.893   6.320   1.256
  350DOPC   GL1 4185  12.789   6.539   1.583
  350DOPC   GL2 4186  12.867   6.814   1.553
  350DOPC   C1A 4187  12.622   6.506   1.984
  350DOPC   D2A 4188  12.616   6.633   2.465
  350DOPC   C3A 4189  12.866   6.393   2.782
  350DOPC   C4A 4190  12.949   6.132   3.195
  350DOPC   C1B 4191  12.888   6.953   1.976
  350DOPC   D2B 4192  12.906   7.081   2.471
  350DOPC   C3B 4193  12.783   6.867   2.882
  350DOPC   C4B 4194  12.509   6.502   3.118
  351DOPC   NC3 4195  13.358   2.749   1.187
  351DOPC   PO4 4196  13.441   2.391   1.335
  351DOPC   GL1 4197  13.334   2.479   1.737
  351DOPC   GL2 4198  13.533   2.730   1.653
  351DOPC   C1A 4199  13.397   2.590   2.163
  351DOPC   D2A 4200  13.594   2.786   2.584
  351DOPC   C3A 4201  13.541   2.618   3.020
  351DOPC   C4A 4202  13.528   2.387   3.454
  351DOPC   C1B 4203  13.823   2.853   1.973
  351DOPC   D2B 4204  14.086   2.896   2.402
  351DOPC   C3B 4205  14.015   2.904   2.867
  351DOPC   C4B 4206  13.813   2.984   3.302
  352DOPC   NC3 4207  11.808   2.683   0.907
  352DOPC   PO4 4208  11.672   2.378   1.131
  352DOPC   GL1 4209  11.803   2.539   1.485
  352DOPC   GL2 4210  11.761   2.831   1.368
  352DOPC   C1A 4211  11.914   2.491   1.918
  352DOPC   D2A 4212  12.043   2.469   2.397
  352DOPC   C3A 4213  11.978   2.422   2.862
  352DOPC   C4A 4214  12.126   2.306   3.327
  352DOPC   C1B 4215  11.908   2.972   1.756
  352DOPC   D2B 4216  11.765   2.915   2.242
  352DOPC   C3B 4217  11.971   2.911   2.666
  352DOPC   C4B 4218  12.197   2.881   3.113
  353DOPC   NC3 4219  12.566   8.103   1.020
  353DOPC   PO4 4220  12.813   8.417   1.002
  353DOPC   GL1 4221  12.872   8.517   1.440
  353DOPC   GL2 4222  12.757   8.203   1.461
  353DOPC   C1A 4223  12.795   8.521   1.885
  353DOPC   D2A 4224  12.705   8.524   2.379
  353DOPC   C3A 4225  12.785   8.428   2.837
  353DOPC   C4A 4226  12.896   8.460   3.329
  353DOPC   C1B 4227  12.695   8.020   1.879
  353DOPC   D2B 4228  12.610   8.007   2.383
  353DOPC   C3B 4229  12.729   7.874   2.814
  353DOPC   C4B 4230  12.991   7.643   3.178
  354DOPC   NC3 4231   8.967   6.763   1.026
  354DOPC   PO4 4232   8.719   7.064   1.139
  354DOPC   GL1 4233   8.436   6.838   1.422
  354DOPC   GL2 4234   8.670   6.660   1.397
  354DOPC   C1A 4235   8.408   6.811   1.861
  354DOPC   D2A 4236   8.422   6.688   2.360
  354DOPC   C3A 4237   8.276   6.933   2.738
  354DOPC   C4A 4238   8.169   7.205   3.140
  354DOPC   C1B 4239   8.876   6.673   1.782
  354DOPC   D2B 4240   8.935   6.618   2.279
  354DOPC   C3B 4241   8.816   6.854   2.672
  354DOPC   C4B 4242   8.687   7.149   3.056
  355DOPC   NC3 4243   2.512   7.716   0.752
  355DOPC   PO4 4244   2.430   7.458   1.048
  355DOPC   GL1 4245   2.548   7.678   1.385
  355DOPC   GL2 4246   2.836   7.716   1.344
  355DOPC   C1A 4247   2.568   7.654   1.822
  355DOPC   D2A 4248   2.612   7.709   2.327
  355DOPC   C3A 4249   2.629   7.666   2.803
  355DOPC   C4A 4250   2.629   7.510   3.278
  355DOPC   C1B 4251   3.061   7.732   1.759
  355DOPC   D2B 4252   3.156   7.672   2.268
  355DOPC   C3B 4253   3.146   7.624   2.740
  355DOPC   C4B 4254   3.136   7.607   3.243
  356DOPC   NC3 4255   3.779   2.926   1.178
  356DOPC   PO4 4256   4.169   3.017   1.189
  356DOPC   GL1 4257   4.333   3.049   1.636
  356DOPC   GL2 4258   4.087   2.857   1.635
  356DOPC   C1A 4259   4.394   2.918   2.077
  356DOPC   D2A 4260   4.413   2.791   2.567
  356DOPC   C3A 4261   4.165   2.729   2.973
  356DOPC   C4A 4262   3.860   2.641   3.365
  356DOPC   C1B 4263   3.939   2.723   2.044
  356DOPC   D2B 4264   3.923   2.610   2.536
  356DOPC   C3B 4265   3.641   2.585   2.917
  356DOPC   C4B 4266   3.325   2.612   3.310
  357DOPC   NC3 4267   7.259   2.467   1.001
  357DOPC   PO4 4268   7.588   2.454   1.230
  357DOPC   GL1 4269   7.624   2.643   1.590
  357DOPC   GL2 4270   7.558   2.918   1.527
  357DOPC   C1A 4271   7.425   2.661   1.969
  357DOPC   D2A 4272   7.447   2.541   2.446
  357DOPC   C3A 4273   7.381   2.506   2.904
  357DOPC   C4A 4274   7.118   2.444   3.316
  357DOPC   C1B 4275   7.544   3.144   1.916
  357DOPC   D2B 4276   7.504   3.245   2.386
  357DOPC   C3B 4277   7.452   2.998   2.767
  357DOPC   C4B 4278   7.405   2.892   3.254
  358DOPC   NC3 4279   5.712   1.248   0.851
  358DOPC   PO4 4280   5.373   1.052   0.949
  358DOPC   GL1 4281   5.305   1.269   1.307
  358DOPC   GL2 4282   5.610   1.359   1.299
  358DOPC   C1A 4283   5.329   1.390   1.724
  358DOPC   D2A 4284   5.472   1.532   2.190
  358DOPC   C3A 4285   5.645   1.570   2.627
  358DOPC   C4A 4286   5.844   1.538   3.084
  358DOPC   C1B 4287   5.836   1.366   1.704
  358DOPC   D2B 4288   5.971   1.349   2.196
  358DOPC   C3B 4289   6.065   1.284   2.677
  358DOPC   C4B 4290   6.178   1.161   3.158
  359DOPC   NC3 4291   8.761   1.357   0.976
  359DOPC   PO4 4292   8.990   1.557   1.235
  359DOPC   GL1 4293   8.812   1.729   1.551
  359DOPC   GL2 4294   8.698   1.986   1.440
  359DOPC   C1A 4295   8.959   1.817   1.959
  359DOPC   D2A 4296   9.018   1.926   2.439
  359DOPC   C3A 4297   9.145   1.835   2.880
  359DOPC   C4A 4298   9.080   1.648   3.322
  359DOPC   C1B 4299   8.560   2.094   1.850
  359DOPC   D2B 4300   8.527   1.847   2.284
  359DOPC   C3B 4301   8.631   1.830   2.742
  359DOPC   C4B 4302   8.676   1.953   3.212
  360DOPC   NC3 4303  11.631   0.728   1.189
  360DOPC   PO4 4304  11.576   0.441   1.467
  360DOPC   GL1 4305  11.570   0.501   1.916
  360DOPC   GL2 4306  11.819   0.687   1.872
  360DOPC   C1A 4307  11.745   0.309   2.288
  360DOPC   D2A 4308  12.039   0.091   2.646
  360DOPC   C3A 4309  11.791   0.340   2.965
  360DOPC   C4A 4310  11.487   0.678   3.190
  360DOPC   C1B 4311  12.191   0.521   2.085
  360DOPC   D2B 4312  12.525   0.215   2.329
  360DOPC   C3B 4313  12.508   0.216   2.802
  360DOPC   C4B 4314  12.205   0.074   3.174
  361DOPC   NC3 4315   1.273   2.870   1.060
  361DOPC   PO4 4316   0.968   2.902   1.307
  361DOPC   GL1 4317   1.191   2.960   1.658
  361DOPC   GL2 4318   1.242   2.637   1.652
  361DOPC   C1A 4319   1.152   2.993   2.109
  361DOPC   D2A 4320   0.863   2.823   2.488
  361DOPC   C3A 4321   0.897   2.727   2.953
  361DOPC   C4A 4322   1.054   2.686   3.430
  361DOPC   C1B 4323   1.274   2.496   2.084
  361DOPC   D2B 4324   1.255   2.501   2.595
  361DOPC   C3B 4325   1.342   2.470   3.067
  361DOPC   C4B 4326   1.529   2.485   3.536
  362DOPC   NC3 4327  16.856   1.058   1.497
  362DOPC   PO4 4328  16.526   1.185   1.288
  362DOPC   GL1 4329  16.421   1.230   1.632
  362DOPC   GL2 4330  16.461   1.546   1.635
  362DOPC   C1A 4331  16.601   1.050   2.002
  362DOPC   D2A 4332  16.790   0.946   2.452
  362DOPC   C3A 4333  16.726   1.069   2.893
  362DOPC   C4A 4334  16.577   1.359   3.258
  362DOPC   C1B 4335  16.632   1.575   2.049
  362DOPC   D2B 4336  16.717   1.458   2.532
  362DOPC   C3B 4337  16.954   1.538   2.929
  362DOPC   C4B 4338  17.065   1.447   3.395
  363DOPC   NC3 4339   0.727   6.603   0.969
  363DOPC   PO4 4340   0.629   6.520   1.350
  363DOPC   GL1 4341   0.322   6.736   1.580
  363DOPC   GL2 4342   0.160   6.511   1.431
  363DOPC   C1A 4343   0.500   6.615   1.978
  363DOPC   D2A 4344   0.731   6.463   2.404
  363DOPC   C3A 4345   0.648   6.689   2.810
  363DOPC   C4A 4346   0.582   7.091   3.090
  363DOPC   C1B 4347   0.182   6.235   1.758
  363DOPC   D2B 4348   0.266   6.213   2.249
  363DOPC   C3B 4349   0.181   6.235   2.716
  363DOPC   C4B 4350  19.940   6.307   3.151
  364DOPC   NC3 4351  13.291   6.511   1.002
  364DOPC   PO4 4352  13.374   6.900   1.081
  364DOPC   GL1 4353  13.291   6.920   1.521
  364DOPC   GL2 4354  13.235   6.602   1.491
  364DOPC   C1A 4355  13.392   7.060   1.960
  364DOPC   D2A 4356  13.502   7.283   2.425
  364DOPC   C3A 4357  13.675   7.189   2.875
  364DOPC   C4A 4358  13.660   7.057   3.372
  364DOPC   C1B 4359  13.138   6.464   1.924
  364DOPC   D2B 4360  13.201   6.291   2.415
  364DOPC   C3B 4361  13.351   6.322   2.894
  364DOPC   C4B 4362  13.372   6.351   3.407
  365DOPC   NC3 4363   9.578   3.988   1.297
  365DOPC   PO4 4364   9.905   4.201   1.162
  365DOPC   GL1 4365   9.868   4.261   1.580
  365DOPC   GL2 4366   9.623   4.443   1.481
  365DOPC   C1A 4367   9.715   3.955   1.884
  365DOPC   D2A 4368   9.535   3.649   2.242
  365DOPC   C3A 4369   9.640   3.699   2.691
  365DOPC   C4A 4370   9.855   3.720   3.141
  365DOPC   C1B 4371   9.367   4.336   1.823
  365DOPC   D2B 4372   9.376   4.132   2.290
  365DOPC   C3B 4373   9.838   4.089   2.423
  365DOPC   C4B 4374  10.195   4.286   2.720
  366DOPC   NC3 4375  19.667   2.940   1.220
  366DOPC   PO4 4376  19.686   2.543   1.199
  366DOPC   GL1 4377  19.616   2.662   1.604
  366DOPC   GL2 4378  19.319   2.691   1.516
  366DOPC   C1A 4379  19.708   2.904   1.977
  366DOPC   D2A 4380  19.627   3.150   2.416
  366DOPC   C3A 4381  19.772   3.100   2.868
  366DOPC   C4A 4382  19.933   2.935   3.316
  366DOPC   C1B 4383  19.235   2.700   1.940
  366DOPC   D2B 4384  19.237   2.792   2.441
  366DOPC   C3B 4385  19.388   2.683   2.884
  366DOPC   C4B 4386  19.491   2.505   3.336
  367DOPC   NC3 4387   0.061   3.316   1.279
  367DOPC   PO4 4388   0.435   3.225   1.170
  367DOPC   GL1 4389   0.424   3.596   1.398
  367DOPC   GL2 4390   0.666   3.505   1.553
  367DOPC   C1A 4391   0.115   3.611   1.726
  367DOPC   D2A 4392   0.168   3.527   2.234
  367DOPC   C3A 4393   0.034   3.542   2.693
  367DOPC   C4A 4394   0.010   3.492   3.196
  367DOPC   C1B 4395   0.559   3.675   1.939
  367DOPC   D2B 4396   0.487   3.953   2.351
  367DOPC   C3B 4397   0.521   3.752   2.770
  367DOPC   C4B 4398   0.569   3.495   3.199
  368DOPC   NC3 4399   2.557   8.092   1.145
  368DOPC   PO4 4400   2.915   8.176   1.290
  368DOPC   GL1 4401   2.678   8.093   1.622
  368DOPC   GL2 4402   2.478   8.334   1.540
  368DOPC   C1A 4403   2.804   8.076   2.051
  368DOPC   D2A 4404   2.964   8.061   2.532
  368DOPC   C3A 4405   2.939   8.047   3.004
  368DOPC   C4A 4406   2.753   8.387   3.303
  368DOPC   C1B 4407   2.529   8.491   1.935
  368DOPC   D2B 4408   2.696   8.505   2.400
  368DOPC   C3B 4409   2.535   8.252   2.768
  368DOPC   C4B 4410   2.432   7.979   3.173
  369DOPC   NC3 4411  12.309   4.411   0.935
  369DOPC   PO4 4412  11.938   4.383   1.075
  369DOPC   GL1 4413  11.976   4.179   1.439
  369DOPC   GL2 4414  11.901   4.443   1.574
  369DOPC   C1A 4415  12.277   4.009   1.735
  369DOPC   D2A 4416  12.366   3.739   2.146
  369DOPC   C3A 4417  12.302   3.847   2.605
  369DOPC   C4A 4418  12.335   3.861   3.110
  369DOPC   C1B 4419  12.147   4.517   1.946
  369DOPC   D2B 4420  12.277   4.678   2.415
  369DOPC   C3B 4421  12.149   4.428   2.797
  369DOPC   C4B 4422  11.966   4.211   3.207
  370DOPC   NC3 4423  16.541   9.115   0.974
  370DOPC   PO4 4424  16.353   9.384   1.209
  370DOPC   GL1 4425  16.397   9.196   1.602
  370DOPC   GL2 4426  16.605   9.000   1.478
  370DOPC   C1A 4427  16.548   9.136   2.018
  370DOPC   D2A 4428  16.836   8.982   2.404
  370DOPC   C3A 4429  16.673   9.022   2.847
  370DOPC   C4A 4430  16.433   9.058   3.290
  370DOPC   C1B 4431  16.817   8.744   1.804
  370DOPC   D2B 4432  16.861   8.454   2.222
  370DOPC   C3B 4433  16.764   8.513   2.691
  370DOPC   C4B 4434  16.710   8.627   3.183
  371DOPC   NC3 4435  17.249   8.370   1.087
  371DOPC   PO4 4436  17.641   8.366   1.071
  371DOPC   GL1 4437  17.875   8.550   1.367
  371DOPC   GL2 4438  17.681   8.788   1.305
  371DOPC   C1A 4439  17.831   8.539   1.805
  371DOPC   D2A 4440  17.716   8.622   2.294
  371DOPC   C3A 4441  17.699   8.672   2.765
  371DOPC   C4A 4442  17.687   8.673   3.256
  371DOPC   C1B 4443  17.497   8.926   1.679
  371DOPC   D2B 4444  17.334   9.016   2.145
  371DOPC   C3B 4445  17.410   9.075   2.603
  371DOPC   C4B 4446  17.422   9.124   3.094
  372DOPC   NC3 4447   7.952   6.052   1.103
  372DOPC   PO4 4448   7.719   6.323   1.292
  372DOPC   GL1 4449   7.795   6.210   1.703
  372DOPC   GL2 4450   8.083   6.130   1.584
  372DOPC   C1A 4451   7.673   5.993   2.094
  372DOPC   D2A 4452   7.538   5.729   2.525
  372DOPC   C3A 4453   7.545   5.731   3.009
  372DOPC   C4A 4454   7.581   5.937   3.460
  372DOPC   C1B 4455   8.176   5.909   1.944
  372DOPC   D2B 4456   8.034   5.713   2.378
  372DOPC   C3B 4457   7.936   5.943   2.774
  372DOPC   C4B 4458   8.011   6.138   3.223
  373DOPC   NC3 4459  12.523   5.132   1.285
  373DOPC   PO4 4460  12.134   5.204   1.321
  373DOPC   GL1 4461  12.330   5.231   1.734
  373DOPC   GL2 4462  12.217   4.953   1.747
  373DOPC   C1A 4463  12.332   5.244   2.190
  373DOPC   D2A 4464  12.179   5.116   2.658
  373DOPC   C3A 4465  12.232   5.127   3.124
  373DOPC   C4A 4466  12.215   5.214   3.615
  373DOPC   C1B 4467  11.946   4.952   2.102
  373DOPC   D2B 4468  11.714   4.950   2.540
  373DOPC   C3B 4469  11.826   4.804   2.976
  373DOPC   C4B 4470  12.051   4.708   3.402
  374DOPC   NC3 4471   6.531   7.472   0.995
  374DOPC   PO4 4472   6.145   7.569   1.093
  374DOPC   GL1 4473   6.259   7.617   1.506
  374DOPC   GL2 4474   6.492   7.433   1.465
  374DOPC   C1A 4475   6.246   7.584   1.948
  374DOPC   D2A 4476   6.274   7.521   2.432
  374DOPC   C3A 4477   6.110   7.534   2.862
  374DOPC   C4A 4478   6.036   7.466   3.339
  374DOPC   C1B 4479   6.685   7.357   1.860
  374DOPC   D2B 4480   6.676   7.212   2.342
  374DOPC   C3B 4481   6.577   7.291   2.795
  374DOPC   C4B 4482   6.539   7.468   3.248
  375DOPC   NC3 4483   2.799   9.610   1.127
  375DOPC   PO4 4484   2.457   9.486   1.315
  375DOPC   GL1 4485   2.514   9.320   1.705
  375DOPC   GL2 4486   2.809   9.270   1.623
  375DOPC   C1A 4487   2.450   9.607   2.055
  375DOPC   D2A 4488   2.287   9.835   2.493
  375DOPC   C3A 4489   2.273   9.967   2.962
  375DOPC   C4A 4490   2.324   0.139   3.429
  375DOPC   C1B 4491   2.948   9.413   2.024
  375DOPC   D2B 4492   2.806   9.705   2.402
  375DOPC   C3B 4493   2.686   9.708   2.842
  375DOPC   C4B 4494   2.590   9.698   3.321
  376DOPC   NC3 4495  15.932   1.952   0.990
  376DOPC   PO4 4496  16.160   1.748   1.257
  376DOPC   GL1 4497  15.830   1.834   1.500
  376DOPC   GL2 4498  15.853   2.136   1.418
  376DOPC   C1A 4499  15.992   1.796   1.919
  376DOPC   D2A 4500  16.197   1.690   2.372
  376DOPC   C3A 4501  16.007   1.820   2.781
  376DOPC   C4A 4502  15.779   1.984   3.194
  376DOPC   C1B 4503  15.866   2.284   1.832
  376DOPC   D2B 4504  15.814   2.425   2.321
  376DOPC   C3B 4505  15.771   2.295   2.769
  376DOPC   C4B 4506  15.773   2.497   3.224
  377DOPC   NC3 4507  15.630   0.574   1.365
  377DOPC   PO4 4508  15.754   0.953   1.314
  377DOPC   GL1 4509  16.070   0.938   1.598
  377DOPC   GL2 4510  16.047   0.606   1.593
  377DOPC   C1A 4511  16.122   0.855   2.028
  377DOPC   D2A 4512  16.293   0.653   2.449
  377DOPC   C3A 4513  16.270   0.830   2.878
  377DOPC   C4A 4514  16.198   0.989   3.339
  377DOPC   C1B 4515  16.250   0.362   1.953
  377DOPC   D2B 4516  16.429   0.155   2.393
  377DOPC   C3B 4517  16.312   0.227   2.854
  377DOPC   C4B 4518  16.072   0.452   3.231
  378DOPC   NC3 4519  15.003   0.144   1.246
  378DOPC   PO4 4520  15.357   0.156   1.437
  378DOPC   GL1 4521  15.365   0.112   1.856
  378DOPC   GL2 4522  15.069   0.026   1.890
  378DOPC   C1A 4523  15.563   9.966   2.230
  378DOPC   D2A 4524  15.670   9.796   2.694
  378DOPC   C3A 4525  15.466   9.811   3.125
  378DOPC   C4A 4526  15.223   9.816   3.566
  378DOPC   C1B 4527  15.051   9.786   2.280
  378DOPC   D2B 4528  15.034   9.773   2.790
  378DOPC   C3B 4529  14.918  -0.003   3.188
  378DOPC   C4B 4530  14.585   0.275   3.448
  379DOPC   NC3 4531  10.574   3.565   0.741
  379DOPC   PO4 4532  10.821   3.720   1.012
  379DOPC   GL1 4533  10.608   3.746   1.371
  379DOPC   GL2 4534  10.383   3.558   1.266
  379DOPC   C1A 4535  10.703   3.603   1.781
  379DOPC   D2A 4536  10.539   3.507   2.237
  379DOPC   C3A 4537  10.638   3.557   2.688
  379DOPC   C4A 4538  10.698   3.669   3.161
  379DOPC   C1B 4539  10.351   3.275   1.627
  379DOPC   D2B 4540  10.233   3.122   2.100
  379DOPC   C3B 4541  10.268   3.211   2.568
  379DOPC   C4B 4542  10.317   3.323   3.052
  380DOPC   NC3 4543  12.638   2.285   1.117
  380DOPC   PO4 4544  12.369   1.999   1.193
  380DOPC   GL1 4545  12.481   1.786   1.562
  380DOPC   GL2 4546  12.755   1.822   1.467
  380DOPC   C1A 4547  12.604   1.924   1.966
  380DOPC   D2A 4548  12.719   1.897   2.458
  380DOPC   C3A 4549  12.755   2.020   2.916
  380DOPC   C4A 4550  12.660   2.161   3.376
  380DOPC   C1B 4551  13.066   1.816   1.803
  380DOPC   D2B 4552  13.184   1.802   2.299
  380DOPC   C3B 4553  13.118   1.679   2.759
  380DOPC   C4B 4554  13.204   1.574   3.249
  381DOPC   NC3 4555  16.461   8.166   1.318
  381DOPC   PO4 4556  16.776   8.236   1.081
  381DOPC   GL1 4557  17.044   8.175   1.448
  381DOPC   GL2 4558  16.818   8.347   1.554
  381DOPC   C1A 4559  17.077   8.124   1.876
  381DOPC   D2A 4560  16.891   7.940   2.298
  381DOPC   C3A 4561  16.852   7.986   2.766
  381DOPC   C4A 4562  16.724   8.107   3.235
  381DOPC   C1B 4563  16.572   8.165   1.903
  381DOPC   D2B 4564  16.447   8.172   2.408
  381DOPC   C3B 4565  16.331   7.999   2.841
  381DOPC   C4B 4566  16.147   7.864   3.290
  382DOPC   NC3 4567  14.149   5.181   0.956
  382DOPC   PO4 4568  14.422   4.909   1.070
  382DOPC   GL1 4569  14.291   4.924   1.487
  382DOPC   GL2 4570  14.050   5.133   1.425
  382DOPC   C1A 4571  14.343   4.775   1.918
  382DOPC   D2A 4572  14.337   4.566   2.390
  382DOPC   C3A 4573  14.417   4.724   2.830
  382DOPC   C4A 4574  14.593   4.779   3.288
  382DOPC   C1B 4575  13.946   5.123   1.848
  382DOPC   D2B 4576  14.066   4.983   2.313
  382DOPC   C3B 4577  13.978   5.035   2.771
  382DOPC   C4B 4578  13.832   5.250   3.181
  383DOPC   NC3 4579   9.939   4.721   1.182
  383DOPC   PO4 4580  10.184   5.046   1.149
  383DOPC   GL1 4581  10.192   5.033   1.566
  383DOPC   GL2 4582  10.118   5.320   1.610
  383DOPC   C1A 4583  10.255   4.830   1.972
  383DOPC   D2A 4584  10.368   4.730   2.465
  383DOPC   C3A 4585  10.408   4.967   2.879
  383DOPC   C4A 4586  10.421   5.276   3.274
  383DOPC   C1B 4587  10.275   5.352   2.023
  383DOPC   D2B 4588  10.432   5.332   2.507
  383DOPC   C3B 4589  10.102   5.362   2.846
  383DOPC   C4B 4590   9.897   5.207   3.270
  384DOPC   NC3 4591  15.877   7.376   1.170
  384DOPC   PO4 4592  15.748   7.726   1.299
  384DOPC   GL1 4593  15.957   7.651   1.700
  384DOPC   GL2 4594  15.749   7.420   1.646
  384DOPC   C1A 4595  15.977   7.728   2.168
  384DOPC   D2A 4596  15.900   7.714   2.678
  384DOPC   C3A 4597  15.792   7.550   3.116
  384DOPC   C4A 4598  15.741   7.422   3.607
  384DOPC   C1B 4599  15.548   7.536   1.988
  384DOPC   D2B 4600  15.389   7.730   2.412
  384DOPC   C3B 4601  15.369   7.615   2.863
  384DOPC   C4B 4602  15.350   7.353   3.293
  385DOPC   NC3 4603   9.058   1.062   1.370
  385DOPC   PO4 4604   9.391   1.185   1.193
  385DOPC   GL1 4605   9.302   1.398   1.586
  385DOPC   GL2 4606   9.510   1.175   1.670
  385DOPC   C1A 4607   9.310   1.456   2.018
  385DOPC   D2A 4608   9.373   1.546   2.497
  385DOPC   C3A 4609   9.432   1.344   2.910
  385DOPC   C4A 4610   9.506   1.352   3.397
  385DOPC   C1B 4611   9.660   1.093   2.101
  385DOPC   D2B 4612   9.702   0.972   2.604
  385DOPC   C3B 4613   9.830   1.074   3.062
  385DOPC   C4B 4614   9.939   1.116   3.556
  386DOPC   NC3 4615  15.011   8.274   1.140
  386DOPC   PO4 4616  14.662   8.485   1.127
  386DOPC   GL1 4617  14.646   8.648   1.556
  386DOPC   GL2 4618  14.946   8.607   1.512
  386DOPC   C1A 4619  14.666   8.477   1.973
  386DOPC   D2A 4620  14.621   8.245   2.413
  386DOPC   C3A 4621  14.685   8.364   2.854
  386DOPC   C4A 4622  14.806   8.444   3.325
  386DOPC   C1B 4623  15.104   8.291   1.768
  386DOPC   D2B 4624  15.142   8.140   2.235
  386DOPC   C3B 4625  15.162   8.102   2.705
  386DOPC   C4B 4626  15.124   8.075   3.199
  387DOPC   NC3 4627  15.029   7.368   0.932
  387DOPC   PO4 4628  15.276   7.579   1.160
  387DOPC   GL1 4629  15.131   7.568   1.563
  387DOPC   GL2 4630  15.234   7.279   1.590
  387DOPC   C1A 4631  15.058   7.702   1.984
  387DOPC   D2A 4632  14.861   7.774   2.450
  387DOPC   C3A 4633  14.888   7.726   2.924
  387DOPC   C4A 4634  14.933   7.609   3.409
  387DOPC   C1B 4635  15.179   7.211   2.040
  387DOPC   D2B 4636  15.097   7.322   2.524
  387DOPC   C3B 4637  14.971   7.234   2.972
  387DOPC   C4B 4638  14.882   7.093   3.436
  388DOPC   NC3 4639  13.596   5.103   1.184
  388DOPC   PO4 4640  13.489   4.740   1.056
  388DOPC   GL1 4641  13.563   4.648   1.509
  388DOPC   GL2 4642  13.333   4.841   1.511
  388DOPC   C1A 4643  13.610   4.767   1.966
  388DOPC   D2A 4644  13.662   4.752   2.489
  388DOPC   C3A 4645  13.531   4.834   2.952
  388DOPC   C4A 4646  13.557   4.913   3.450
  388DOPC   C1B 4647  13.393   5.182   1.783
  388DOPC   D2B 4648  13.584   5.211   2.257
  388DOPC   C3B 4649  13.501   5.295   2.723
  388DOPC   C4B 4650  13.336   5.340   3.197
  389DOPC   NC3 4651  19.504   1.208   1.043
  389DOPC   PO4 4652  19.879   1.274   1.140
  389DOPC   GL1 4653  19.658   1.150   1.497
  389DOPC   GL2 4654  19.469   1.412   1.480
  389DOPC   C1A 4655  19.828   1.000   1.899
  389DOPC   D2A 4656  19.911   0.802   2.361
  389DOPC   C3A 4657  19.839   0.898   2.832
  389DOPC   C4A 4658  19.806   1.120   3.282
  389DOPC   C1B 4659  19.567   1.456   1.917
  389DOPC   D2B 4660  19.790   1.296   2.341
  389DOPC   C3B 4661  19.661   1.392   2.778
  389DOPC   C4B 4662  19.362   1.599   3.105
  390DOPC   NC3 4663  13.246   4.351   1.217
  390DOPC   PO4 4664  13.012   4.034   1.234
  390DOPC   GL1 4665  13.095   4.198   1.656
  390DOPC   GL2 4666  12.994   4.484   1.579
  390DOPC   C1A 4667  12.991   4.304   2.082
  390DOPC   D2A 4668  12.819   4.570   2.453
  390DOPC   C3A 4669  13.022   4.517   2.875
  390DOPC   C4A 4670  13.275   4.504   3.299
  390DOPC   C1B 4671  12.611   4.396   1.784
  390DOPC   D2B 4672  12.472   4.238   2.260
  390DOPC   C3B 4673  12.622   4.214   2.740
  390DOPC   C4B 4674  12.875   4.108   3.173
  391DOPC   NC3 4675   3.651   5.729   1.167
  391DOPC   PO4 4676   3.691   6.067   1.376
  391DOPC   GL1 4677   3.922   5.862   1.708
  391DOPC   GL2 4678   3.803   5.602   1.600
  391DOPC   C1A 4679   3.867   5.856   2.166
  391DOPC   D2A 4680   3.613   5.949   2.599
  391DOPC   C3A 4681   3.628   6.064   3.063
  391DOPC   C4A 4682   3.780   6.078   3.548
  391DOPC   C1B 4683   3.507   5.532   1.948
  391DOPC   D2B 4684   3.429   5.484   2.460
  391DOPC   C3B 4685   3.449   5.565   2.934
  391DOPC   C4B 4686   3.443   5.709   3.414
  392DOPC   NC3 4687   6.354   7.994   1.223
  392DOPC   PO4 4688   6.702   7.829   1.334
  392DOPC   GL1 4689   6.598   7.801   1.741
  392DOPC   GL2 4690   6.399   8.032   1.697
  392DOPC   C1A 4691   6.664   7.778   2.185
  392DOPC   D2A 4692   6.640   7.791   2.689
  392DOPC   C3A 4693   6.409   7.913   3.077
  392DOPC   C4A 4694   6.249   7.943   3.550
  392DOPC   C1B 4695   6.623   8.275   1.990
  392DOPC   D2B 4696   6.655   8.274   2.497
  392DOPC   C3B 4697   6.589   8.387   2.958
  392DOPC   C4B 4698   6.507   8.470   3.442
  393DOPC   NC3 4699  11.690   5.215   1.073
  393DOPC   PO4 4700  11.532   5.560   1.209
  393DOPC   GL1 4701  11.574   5.532   1.627
  393DOPC   GL2 4702  11.722   5.261   1.568
  393DOPC   C1A 4703  11.482   5.609   2.057
  393DOPC   D2A 4704  11.500   5.481   2.539
  393DOPC   C3A 4705  11.752   5.303   2.905
  393DOPC   C4A 4706  11.762   5.192   3.380
  393DOPC   C1B 4707  11.507   5.112   1.916
  393DOPC   D2B 4708  11.254   4.992   2.335
  393DOPC   C3B 4709  11.284   5.090   2.804
  393DOPC   C4B 4710  11.241   5.151   3.293
  394DOPC   NC3 4711  18.127   8.247   1.047
  394DOPC   PO4 4712  17.966   7.985   1.298
  394DOPC   GL1 4713  18.117   8.093   1.705
  394DOPC   GL2 4714  18.301   7.832   1.694
  394DOPC   C1A 4715  18.044   8.218   2.144
  394DOPC   D2A 4716  17.805   8.213   2.599
  394DOPC   C3A 4717  17.866   8.211   3.066
  394DOPC   C4A 4718  18.108   8.367   3.473
  394DOPC   C1B 4719  18.372   7.831   2.127
  394DOPC   D2B 4720  18.321   8.043   2.588
  394DOPC   C3B 4721  18.370   8.022   3.057
  394DOPC   C4B 4722  18.372   7.882   3.535
  395DOPC   NC3 4723   1.559   4.424   1.369
  395DOPC   PO4 4724   1.778   4.083   1.341
  395DOPC   GL1 4725   2.169   4.209   1.472
  395DOPC   GL2 4726   2.080   4.465   1.342
  395DOPC   C1A 4727   2.140   4.256   1.914
  395DOPC   D2A 4728   2.002   4.249   2.389
  395DOPC   C3A 4729   1.983   4.215   2.846
  395DOPC   C4A 4730   1.840   4.313   3.287
  395DOPC   C1B 4731   2.259   4.700   1.671
  395DOPC   D2B 4732   2.316   4.707   2.169
  395DOPC   C3B 4733   2.221   4.649   2.628
  395DOPC   C4B 4734   2.232   4.607   3.121
  396DOPC   NC3 4735   9.708   3.000   1.026
  396DOPC   PO4 4736   9.330   2.930   1.152
  396DOPC   GL1 4737   9.185   3.042   1.567
  396DOPC   GL2 4738   9.477   3.154   1.584
  396DOPC   C1A 4739   8.998   2.904   1.955
  396DOPC   D2A 4740   8.876   2.828   2.445
  396DOPC   C3A 4741   9.071   2.875   2.874
  396DOPC   C4A 4742   9.315   3.063   3.266
  396DOPC   C1B 4743   9.513   2.953   1.994
  396DOPC   D2B 4744   9.420   2.751   2.459
  396DOPC   C3B 4745   9.587   2.794   2.901
  396DOPC   C4B 4746   9.851   2.743   3.323
  397DOPC   NC3 4747  12.877   9.784   1.309
  397DOPC   PO4 4748  12.979   9.396   1.337
  397DOPC   GL1 4749  12.767   9.284   1.663
  397DOPC   GL2 4750  12.668   9.584   1.707
  397DOPC   C1A 4751  12.992   9.363   2.019
  397DOPC   D2A 4752  13.140   9.461   2.482
  397DOPC   C3A 4753  12.804   9.387   2.802
  397DOPC   C4A 4754  12.479   9.258   3.153
  397DOPC   C1B 4755  12.734   9.771   2.132
  397DOPC   D2B 4756  12.831   9.859   2.621
  397DOPC   C3B 4757  12.681   9.813   3.082
  397DOPC   C4B 4758  12.530   9.940   3.548
  398DOPC   NC3 4759   3.640   8.962   1.253
  398DOPC   PO4 4760   3.962   8.834   1.441
  398DOPC   GL1 4761   3.795   8.903   1.797
  398DOPC   GL2 4762   3.509   8.935   1.690
  398DOPC   C1A 4763   3.795   8.923   2.237
  398DOPC   D2A 4764   3.771   9.010   2.724
  398DOPC   C3A 4765   3.718   8.805   3.132
  398DOPC   C4A 4766   3.654   8.593   3.576
  398DOPC   C1B 4767   3.241   8.976   2.023
  398DOPC   D2B 4768   3.019   8.956   2.473
  398DOPC   C3B 4769   3.266   8.948   2.885
  398DOPC   C4B 4770   3.341   9.006   3.383
  399DOPC   NC3 4771   7.305   1.675   0.874
  399DOPC   PO4 4772   7.384   1.975   1.124
  399DOPC   GL1 4773   7.582   2.048   1.481
  399DOPC   GL2 4774   7.377   2.247   1.598
  399DOPC   C1A 4775   7.569   1.821   1.826
  399DOPC   D2A 4776   7.409   1.760   2.280
  399DOPC   C3A 4777   7.542   1.660   2.707
  399DOPC   C4A 4778   7.431   1.577   3.166
  399DOPC   C1B 4779   7.256   2.192   2.040
  399DOPC   D2B 4780   7.083   2.177   2.526
  399DOPC   C3B 4781   7.224   2.018   2.961
  399DOPC   C4B 4782   7.351   2.001   3.449
  400DOPC   NC3 4783   8.119   2.503   1.098
  400DOPC   PO4 4784   7.987   2.807   1.332
  400DOPC   GL1 4785   7.942   2.919   1.774
  400DOPC   GL2 4786   8.045   2.635   1.793
  400DOPC   C1A 4787   7.848   2.829   2.202
  400DOPC   D2A 4788   7.921   2.563   2.620
  400DOPC   C3A 4789   7.868   2.815   2.993
  400DOPC   C4A 4790   7.895   3.083   3.389
  400DOPC   C1B 4791   8.163   2.424   2.173
  400DOPC   D2B 4792   8.257   2.170   2.604
  400DOPC   C3B 4793   8.173   2.257   3.065
  400DOPC   C4B 4794   7.764   2.424   3.301
  401DOPC   NC3 4795  12.097   8.383   1.110
  401DOPC   PO4 4796  12.398   8.488   1.347
  401DOPC   GL1 4797  12.323   8.251   1.659
  401DOPC   GL2 4798  12.021   8.219   1.613
  401DOPC   C1A 4799  12.321   8.311   2.086
  401DOPC   D2A 4800  12.122   8.089   2.490
  401DOPC   C3A 4801  12.120   8.293   2.918
  401DOPC   C4A 4802  12.246   8.250   3.392
  401DOPC   C1B 4803  11.870   8.091   2.016
  401DOPC   D2B 4804  11.594   8.021   2.432
  401DOPC   C3B 4805  11.801   7.889   2.835
  401DOPC   C4B 4806  11.993   7.830   3.287
  402DOPC   NC3 4807   4.353   6.190   1.222
  402DOPC   PO4 4808   4.143   5.852   1.250
  402DOPC   GL1 4809   4.343   5.890   1.588
  402DOPC   GL2 4810   4.615   5.884   1.528
  402DOPC   C1A 4811   4.244   6.119   1.948
  402DOPC   D2A 4812   4.257   6.238   2.437
  402DOPC   C3A 4813   4.083   5.966   2.785
  402DOPC   C4A 4814   3.955   5.717   3.200
  402DOPC   C1B 4815   4.721   5.925   1.952
  402DOPC   D2B 4816   4.797   6.088   2.425
  402DOPC   C3B 4817   4.569   6.119   2.842
  402DOPC   C4B 4818   4.238   6.176   3.219
  403DOPC   NC3 4819  14.942   1.825   1.279
  403DOPC   PO4 4820  15.034   2.218   1.281
  403DOPC   GL1 4821  15.236   2.048   1.573
  403DOPC   GL2 4822  15.469   2.186   1.629
  403DOPC   C1A 4823  14.975   1.979   1.906
  403DOPC   D2A 4824  14.797   2.078   2.349
  403DOPC   C3A 4825  14.856   2.020   2.806
  403DOPC   C4A 4826  14.872   1.894   3.281
  403DOPC   C1B 4827  15.433   2.181   2.074
  403DOPC   D2B 4828  15.303   2.163   2.555
  403DOPC   C3B 4829  15.323   2.223   3.034
  403DOPC   C4B 4830  15.327   2.465   3.481
  404DOPC   NC3 4831   6.713   3.529   1.164
  404DOPC   PO4 4832   6.992   3.689   1.405
  404DOPC   GL1 4833   6.687   3.655   1.670
  404DOPC   GL2 4834   6.438   3.735   1.498
  404DOPC   C1A 4835   6.623   3.419   2.057
  404DOPC   D2A 4836   6.609   3.057   2.417
  404DOPC   C3A 4837   6.602   3.243   2.851
  404DOPC   C4A 4838   6.727   3.545   3.214
  404DOPC   C1B 4839   6.288   3.790   1.904
  404DOPC   D2B 4840   6.358   3.748   2.402
  404DOPC   C3B 4841   6.253   3.648   2.852
  404DOPC   C4B 4842   6.220   3.537   3.330
  405DOPC   NC3 4843   5.053   5.391   1.296
  405DOPC   PO4 4844   4.775   5.140   1.450
  405DOPC   GL1 4845   4.759   5.471   1.752
  405DOPC   GL2 4846   5.070   5.385   1.764
  405DOPC   C1A 4847   4.758   5.449   2.204
  405DOPC   D2A 4848   4.786   5.261   2.683
  405DOPC   C3A 4849   4.724   5.227   3.159
  405DOPC   C4A 4850   4.980   5.156   3.591
  405DOPC   C1B 4851   5.191   5.160   2.134
  405DOPC   D2B 4852   5.231   4.896   2.564
  405DOPC   C3B 4853   5.188   5.102   2.983
  405DOPC   C4B 4854   5.132   5.514   3.237
  406DOPC   NC3 4855   7.189   0.274   1.262
  406DOPC   PO4 4856   7.395   0.609   1.189
  406DOPC   GL1 4857   7.215   0.657   1.580
  406DOPC   GL2 4858   7.366   0.403   1.681
  406DOPC   C1A 4859   7.052   0.998   1.842
  406DOPC   D2A 4860   6.840   1.139   2.284
  406DOPC   C3A 4861   6.997   0.902   2.670
  406DOPC   C4A 4862   7.193   0.704   3.088
  406DOPC   C1B 4863   7.318   0.367   2.131
  406DOPC   D2B 4864   7.234   0.308   2.632
  406DOPC   C3B 4865   7.356   0.215   3.090
  406DOPC   C4B 4866   7.345   0.080   3.574
  407DOPC   NC3 4867  17.643   7.597   1.216
  407DOPC   PO4 4868  17.429   7.935   1.300
  407DOPC   GL1 4869  17.626   8.211   1.532
  407DOPC   GL2 4870  17.427   8.436   1.535
  407DOPC   C1A 4871  17.597   8.093   1.947
  407DOPC   D2A 4872  17.340   8.173   2.360
  407DOPC   C3A 4873  17.353   8.152   2.838
  407DOPC   C4A 4874  17.423   8.074   3.328
  407DOPC   C1B 4875  17.324   8.541   1.980
  407DOPC   D2B 4876  17.235   8.639   2.490
  407DOPC   C3B 4877  17.210   8.638   2.969
  407DOPC   C4B 4878  17.142   8.486   3.444
  408DOPC   NC3 4879   4.919   1.867   1.058
  408DOPC   PO4 4880   4.906   1.489   1.175
  408DOPC   GL1 4881   4.827   1.544   1.604
  408DOPC   GL2 4882   4.735   1.834   1.525
  408DOPC   C1A 4883   5.017   1.693   1.985
  408DOPC   D2A 4884   5.161   1.880   2.423
  408DOPC   C3A 4885   5.218   1.779   2.868
  408DOPC   C4A 4886   4.990   1.715   3.297
  408DOPC   C1B 4887   4.678   2.063   1.911
  408DOPC   D2B 4888   4.677   2.062   2.419
  408DOPC   C3B 4889   4.862   2.130   2.853
  408DOPC   C4B 4890   4.950   2.273   3.326
  409DOPC   NC3 4891   3.220   4.926   1.214
  409DOPC   PO4 4892   3.575   5.072   1.328
  409DOPC   GL1 4893   3.606   5.098   1.750
  409DOPC   GL2 4894   3.904   5.187   1.702
  409DOPC   C1A 4895   3.495   5.075   2.196
  409DOPC   D2A 4896   3.460   5.023   2.705
  409DOPC   C3A 4897   3.540   4.869   3.146
  409DOPC   C4A 4898   3.604   4.869   3.648
  409DOPC   C1B 4899   3.936   5.333   2.111
  409DOPC   D2B 4900   3.941   5.517   2.564
  409DOPC   C3B 4901   3.865   5.267   2.937
  409DOPC   C4B 4902   3.726   5.288   3.394
  410DOPC   NC3 4903  16.997   0.390   0.931
  410DOPC   PO4 4904  16.955   0.649   1.240
  410DOPC   GL1 4905  17.202   0.573   1.566
  410DOPC   GL2 4906  17.296   0.847   1.618
  410DOPC   C1A 4907  17.148   0.404   1.965
  410DOPC   D2A 4908  17.077   0.257   2.444
  410DOPC   C3A 4909  17.182   0.333   2.910
  410DOPC   C4A 4910  17.278   0.380   3.412
  410DOPC   C1B 4911  17.459   0.902   2.055
  410DOPC   D2B 4912  17.692   0.984   2.511
  410DOPC   C3B 4913  17.714   0.842   2.978
  410DOPC   C4B 4914  17.585   0.802   3.466
  411DOPC   NC3 4915  19.027   8.742   1.044
  411DOPC   PO4 4916  19.087   8.411   1.262
  411DOPC   GL1 4917  18.753   8.512   1.476
  411DOPC   GL2 4918  18.745   8.813   1.448
  411DOPC   C1A 4919  18.750   8.523   1.913
  411DOPC   D2A 4920  18.677   8.679   2.382
  411DOPC   C3A 4921  18.653   8.532   2.824
  411DOPC   C4A 4922  18.590   8.438   3.304
  411DOPC   C1B 4923  18.603   8.994   1.850
  411DOPC   D2B 4924  18.396   9.101   2.310
  411DOPC   C3B 4925  18.433   9.022   2.775
  411DOPC   C4B 4926  18.705   8.923   3.187
  412DOPC   NC3 4927  16.478   4.133   1.152
  412DOPC   PO4 4928  16.812   4.110   1.384
  412DOPC   GL1 4929  16.748   4.111   1.811
  412DOPC   GL2 4930  16.615   3.821   1.781
  412DOPC   C1A 4931  16.751   4.282   2.240
  412DOPC   D2A 4932  16.604   4.328   2.724
  412DOPC   C3A 4933  16.761   4.339   3.171
  412DOPC   C4A 4934  16.873   4.237   3.650
  412DOPC   C1B 4935  16.469   3.647   2.158
  412DOPC   D2B 4936  16.232   3.663   2.607
  412DOPC   C3B 4937  16.339   3.947   2.969
  412DOPC   C4B 4938  16.422   4.075   3.442
  413DOPC   NC3 4939   6.654   1.050   0.991
  413DOPC   PO4 4940   6.402   0.895   1.260
  413DOPC   GL1 4941   6.731   1.082   1.471
  413DOPC   GL2 4942   6.629   1.357   1.344
  413DOPC   C1A 4943   6.543   1.060   1.878
  413DOPC   D2A 4944   6.349   1.039   2.339
  413DOPC   C3A 4945   6.521   1.041   2.776
  413DOPC   C4A 4946   6.833   1.069   3.148
  413DOPC   C1B 4947   6.563   1.562   1.708
  413DOPC   D2B 4948   6.489   1.529   2.206
  413DOPC   C3B 4949   6.509   1.533   2.674
  413DOPC   C4B 4950   6.515   1.556   3.173
  414DOPC   NC3 4951   7.932   7.900   1.259
  414DOPC   PO4 4952   8.085   8.257   1.146
  414DOPC   GL1 4953   8.189   8.428   1.531
  414DOPC   GL2 4954   7.983   8.182   1.631
  414DOPC   C1A 4955   8.345   8.337   1.929
  414DOPC   D2A 4956   8.476   8.239   2.404
  414DOPC   C3A 4957   8.403   8.460   2.822
  414DOPC   C4A 4958   8.227   8.650   3.247
  414DOPC   C1B 4959   8.076   7.894   1.984
  414DOPC   D2B 4960   8.136   7.827   2.493
  414DOPC   C3B 4961   8.073   8.029   2.924
  414DOPC   C4B 4962   7.890   8.256   3.341
  415DOPC   NC3 4963   4.278   0.402   1.183
  415DOPC   PO4 4964   4.568   0.661   1.287
  415DOPC   GL1 4965   4.568   0.468   1.666
  415DOPC   GL2 4966   4.455   0.200   1.575
  415DOPC   C1A 4967   4.347   0.517   2.058
  415DOPC   D2A 4968   4.248   0.759   2.491
  415DOPC   C3A 4969   4.432   0.684   2.905
  415DOPC   C4A 4970   4.809   0.787   3.183
  415DOPC   C1B 4971   4.406   9.973   1.969
  415DOPC   D2B 4972   4.482   9.919   2.477
  415DOPC   C3B 4973   4.498   0.137   2.910
  415DOPC   C4B 4974   4.507   0.392   3.352
  416DOPC   NC3 4975  16.733   6.749   1.288
  416DOPC   PO4 4976  16.433   7.012   1.316
  416DOPC   GL1 4977  16.438   7.035   1.746
  416DOPC   GL2 4978  16.482   6.727   1.720
  416DOPC   C1A 4979  16.581   7.119   2.159
  416DOPC   D2A 4980  16.748   7.085   2.633
  416DOPC   C3A 4981  16.522   6.985   3.030
  416DOPC   C4A 4982  16.205   6.814   3.360
  416DOPC   C1B 4983  16.613   6.545   2.115
  416DOPC   D2B 4984  16.830   6.230   2.455
  416DOPC   C3B 4985  16.658   6.252   2.897
  416DOPC   C4B 4986  16.528   6.436   3.341
  417DOPC   NC3 4987   5.072   6.700   1.199
  417DOPC   PO4 4988   5.453   6.671   1.316
  417DOPC   GL1 4989   5.290   6.464   1.621
  417DOPC   GL2 4990   5.000   6.564   1.643
  417DOPC   C1A 4991   5.462   6.626   1.993
  417DOPC   D2A 4992   5.444   6.930   2.398
  417DOPC   C3A 4993   5.349   6.808   2.837
  417DOPC   C4A 4994   5.187   6.615   3.268
  417DOPC   C1B 4995   4.992   6.786   2.042
  417DOPC   D2B 4996   4.943   6.987   2.505
  417DOPC   C3B 4997   4.842   6.751   2.912
  417DOPC   C4B 4998   4.705   6.425   3.275
  418DOPC   NC3 4999  19.803   4.897   1.015
  418DOPC   PO4 5000  19.555   5.218   1.001
  418DOPC   GL1 5001  19.713   5.305   1.409
  418DOPC   GL2 5002  19.667   5.005   1.487
  418DOPC   C1A 5003  19.891   5.446   1.807
  418DOPC   D2A 5004  19.793   5.467   2.306
  418DOPC   C3A 5005  19.700   5.392   2.762
  418DOPC   C4A 5006  19.633   5.355   3.260
  418DOPC   C1B 5007  19.690   4.999   1.954
  418DOPC   D2B 5008  19.554   4.971   2.458
  418DOPC   C3B 5009  19.543   4.942   2.939
  418DOPC   C4B 5010  19.733   4.786   3.383
  419DOPC   NC3 5011   0.120   0.505   1.089
  419DOPC   PO4 5012  19.918   0.766   1.310
  419DOPC   GL1 5013   0.037   0.475   1.577
  419DOPC   GL2 5014   0.342   0.483   1.508
  419DOPC   C1A 5015   0.115   0.495   1.996
  419DOPC   D2A 5016   0.420   0.564   2.387
  419DOPC   C3A 5017   0.246   0.559   2.818
  419DOPC   C4A 5018   0.047   0.614   3.263
  419DOPC   C1B 5019   0.611   0.431   1.884
  419DOPC   D2B 5020   0.827   0.249   2.319
  419DOPC   C3B 5021   0.737   0.319   2.779
  419DOPC   C4B 5022   0.554   0.417   3.234
  420DOPC   NC3 5023   6.240   7.105   1.221
  420DOPC   PO4 5024   5.963   6.836   1.307
  420DOPC   GL1 5025   6.071   7.054   1.676
  420DOPC   GL2 5026   5.804   6.929   1.783
  420DOPC   C1A 5027   6.270   7.087   2.069
  420DOPC   D2A 5028   6.225   7.003   2.570
  420DOPC   C3A 5029   6.159   7.030   3.055
  420DOPC   C4A 5030   6.028   6.998   3.552
  420DOPC   C1B 5031   5.888   6.776   2.197
  420DOPC   D2B 5032   5.832   6.673   2.685
  420DOPC   C3B 5033   5.648   6.445   3.055
  420DOPC   C4B 5034   5.525   6.275   3.507
  421DOPC   NC3 5035   8.969   9.728   1.284
  421DOPC   PO4 5036   9.040   9.327   1.288
  421DOPC   GL1 5037   9.086   9.323   1.691
  421DOPC   GL2 5038   9.063   9.631   1.745
  421DOPC   C1A 5039   9.245   9.223   2.082
  421DOPC   D2A 5040   9.398   9.399   2.506
  421DOPC   C3A 5041   9.387   9.379   2.953
  421DOPC   C4A 5042   9.596   9.435   3.379
  421DOPC   C1B 5043   9.177   9.737   2.183
  421DOPC   D2B 5044   9.382   9.906   2.631
  421DOPC   C3B 5045   9.446   9.880   3.114
  421DOPC   C4B 5046   9.360   9.851   3.619
  422DOPC   NC3 5047  14.065   2.769   0.705
  422DOPC   PO4 5048  14.205   2.657   1.067
  422DOPC   GL1 5049  13.877   2.574   1.391
  422DOPC   GL2 5050  14.006   2.803   1.526
  422DOPC   C1A 5051  13.875   2.347   1.791
  422DOPC   D2A 5052  13.872   2.435   2.285
  422DOPC   C3A 5053  13.935   2.408   2.748
  422DOPC   C4A 5054  14.017   2.499   3.226
  422DOPC   C1B 5055  14.286   2.640   1.845
  422DOPC   D2B 5056  14.570   2.620   2.249
  422DOPC   C3B 5057  14.479   2.715   2.702
  422DOPC   C4B 5058  14.487   2.940   3.145
  423DOPC   NC3 5059  13.351   3.585   1.311
  423DOPC   PO4 5060  13.447   3.935   1.475
  423DOPC   GL1 5061  13.294   3.830   1.846
  423DOPC   GL2 5062  13.481   3.581   1.832
  423DOPC   C1A 5063  13.289   3.908   2.274
  423DOPC   D2A 5064  13.161   3.991   2.748
  423DOPC   C3A 5065  13.229   3.581   2.973
  423DOPC   C4A 5066  13.368   3.111   3.070
  423DOPC   C1B 5067  13.608   3.459   2.254
  423DOPC   D2B 5068  13.779   3.344   2.727
  423DOPC   C3B 5069  13.698   3.501   3.176
  423DOPC   C4B 5070  13.708   3.341   3.653
  424DOPC   NC3 5071  17.843   5.613   0.919
  424DOPC   PO4 5072  17.627   5.858   1.147
  424DOPC   GL1 5073  17.661   5.709   1.578
  424DOPC   GL2 5074  17.962   5.668   1.503
  424DOPC   C1A 5075  17.697   5.785   2.033
  424DOPC   D2A 5076  17.782   5.822   2.536
  424DOPC   C3A 5077  17.746   5.886   3.010
  424DOPC   C4A 5078  17.721   5.940   3.507
  424DOPC   C1B 5079  18.186   5.634   1.894
  424DOPC   D2B 5080  18.348   5.662   2.374
  424DOPC   C3B 5081  18.244   5.770   2.828
  424DOPC   C4B 5082  18.212   5.824   3.321
  425DOPC   NC3 5083  15.964   8.138   1.155
  425DOPC   PO4 5084  16.041   8.436   1.396
  425DOPC   GL1 5085  16.110   8.088   1.644
  425DOPC   GL2 5086  15.797   8.058   1.619
  425DOPC   C1A 5087  16.082   8.225   2.060
  425DOPC   D2A 5088  16.010   8.523   2.461
  425DOPC   C3A 5089  16.020   8.404   2.923
  425DOPC   C4A 5090  16.283   8.362   3.350
  425DOPC   C1B 5091  15.600   8.055   2.023
  425DOPC   D2B 5092  15.650   8.148   2.522
  425DOPC   C3B 5093  15.624   8.073   2.990
  425DOPC   C4B 5094  15.784   8.258   3.426
  426DOPC   NC3 5095   0.393   6.113   1.157
  426DOPC   PO4 5096   0.787   6.112   1.082
  426DOPC   GL1 5097   0.761   6.076   1.514
  426DOPC   GL2 5098   0.573   5.827   1.493
  426DOPC   C1A 5099   0.693   6.136   1.959
  426DOPC   D2A 5100   0.678   5.963   2.443
  426DOPC   C3A 5101   0.691   6.154   2.876
  426DOPC   C4A 5102   0.782   6.274   3.352
  426DOPC   C1B 5103   0.347   5.766   1.897
  426DOPC   D2B 5104   0.218   5.729   2.391
  426DOPC   C3B 5105   0.383   5.744   2.829
  426DOPC   C4B 5106   0.346   6.014   3.246
  427DOPC   NC3 5107   1.014   8.759   1.054
  427DOPC   PO4 5108   1.001   9.021   1.352
  427DOPC   GL1 5109   1.178   8.626   1.482
  427DOPC   GL2 5110   1.367   8.813   1.616
  427DOPC   C1A 5111   1.030   8.499   1.876
  427DOPC   D2A 5112   0.890   8.448   2.358
  427DOPC   C3A 5113   1.068   8.735   2.699
  427DOPC   C4A 5114   1.337   8.914   3.097
  427DOPC   C1B 5115   1.248   8.936   2.039
  427DOPC   D2B 5116   1.098   9.213   2.436
  427DOPC   C3B 5117   0.964   9.211   2.894
  427DOPC   C4B 5118   0.869   8.952   3.306
  428DOPC   NC3 5119   7.803   1.679   1.097
  428DOPC   PO4 5120   7.935   2.051   1.175
  428DOPC   GL1 5121   7.942   2.324   1.502
  428DOPC   GL2 5122   8.189   2.215   1.609
  428DOPC   C1A 5123   7.749   2.295   1.889
  428DOPC   D2A 5124   7.749   2.132   2.361
  428DOPC   C3A 5125   7.743   2.110   2.833
  428DOPC   C4A 5126   7.819   1.905   3.283
  428DOPC   C1B 5127   8.099   1.953   1.991
  428DOPC   D2B 5128   8.058   1.723   2.453
  428DOPC   C3B 5129   8.156   1.740   2.922
  428DOPC   C4B 5130   8.266   1.678   3.406
  429DOPC   NC3 5131   2.252   3.110   1.209
  429DOPC   PO4 5132   1.895   3.202   1.370
  429DOPC   GL1 5133   1.926   3.236   1.830
  429DOPC   GL2 5134   1.921   3.541   1.785
  429DOPC   C1A 5135   2.066   3.244   2.271
  429DOPC   D2A 5136   2.180   3.319   2.768
  429DOPC   C3A 5137   2.507   3.207   3.114
  429DOPC   C4A 5138   2.917   3.151   3.409
  429DOPC   C1B 5139   2.026   3.771   2.157
  429DOPC   D2B 5140   2.239   3.841   2.621
  429DOPC   C3B 5141   2.402   3.724   3.064
  429DOPC   C4B 5142   2.573   3.557   3.518
  430DOPC   NC3 5143  11.506   7.661   1.136
  430DOPC   PO4 5144  11.848   7.561   1.316
  430DOPC   GL1 5145  11.931   7.744   1.702
  430DOPC   GL2 5146  11.676   7.903   1.648
  430DOPC   C1A 5147  11.783   7.596   2.102
  430DOPC   D2A 5148  11.599   7.510   2.550
  430DOPC   C3A 5149  11.624   7.454   3.025
  430DOPC   C4A 5150  11.685   7.513   3.521
  430DOPC   C1B 5151  11.380   7.887   1.967
  430DOPC   D2B 5152  11.125   7.685   2.339
  430DOPC   C3B 5153  11.141   7.558   2.776
  430DOPC   C4B 5154  11.156   7.354   3.210
  431DOPC   NC3 5155   3.788   9.717   1.278
  431DOPC   PO4 5156   3.745   9.373   1.499
  431DOPC   GL1 5157   3.649   9.289   1.960
  431DOPC   GL2 5158   3.414   9.480   1.892
  431DOPC   C1A 5159   3.450   9.275   2.371
  431DOPC   D2A 5160   3.121   9.423   2.717
  431DOPC   C3A 5161   3.467   9.391   3.035
  431DOPC   C4A 5162   3.887   9.258   3.253
  431DOPC   C1B 5163   3.290   9.745   2.253
  431DOPC   D2B 5164   3.138   9.968   2.692
  431DOPC   C3B 5165   3.113   9.764   3.111
  431DOPC   C4B 5166   2.970   9.343   3.305
  432DOPC   NC3 5167   4.172   8.509   1.152
  432DOPC   PO4 5168   4.496   8.724   1.226
  432DOPC   GL1 5169   4.406   8.813   1.633
  432DOPC   GL2 5170   4.279   8.522   1.638
  432DOPC   C1A 5171   4.616   8.941   2.015
  432DOPC   D2A 5172   4.846   8.948   2.471
  432DOPC   C3A 5173   4.646   9.074   2.884
  432DOPC   C4A 5174   4.419   9.221   3.308
  432DOPC   C1B 5175   4.183   8.644   2.045
  432DOPC   D2B 5176   4.298   8.913   2.460
  432DOPC   C3B 5177   4.212   8.734   2.887
  432DOPC   C4B 5178   3.974   8.380   3.140
  433DOPC   NC3 5179  16.899   2.577   0.933
  433DOPC   PO4 5180  17.074   2.383   1.249
  433DOPC   GL1 5181  17.011   2.452   1.684
  433DOPC   GL2 5182  17.214   2.692   1.679
  433DOPC   C1A 5183  17.077   2.510   2.123
  433DOPC   D2A 5184  17.182   2.481   2.613
  433DOPC   C3A 5185  17.122   2.649   3.043
  433DOPC   C4A 5186  17.094   2.773   3.521
  433DOPC   C1B 5187  17.541   2.676   2.016
  433DOPC   D2B 5188  17.749   2.500   2.427
  433DOPC   C3B 5189  17.598   2.723   2.804
  433DOPC   C4B 5190  17.547   2.850   3.266
  434DOPC   NC3 5191   6.568   2.313   1.097
  434DOPC   PO4 5192   6.228   2.507   1.175
  434DOPC   GL1 5193   6.410   2.449   1.565
  434DOPC   GL2 5194   6.682   2.558   1.487
  434DOPC   C1A 5195   6.463   2.466   2.010
  434DOPC   D2A 5196   6.631   2.527   2.491
  434DOPC   C3A 5197   6.622   2.461   2.971
  434DOPC   C4A 5198   6.632   2.465   3.476
  434DOPC   C1B 5199   6.922   2.634   1.875
  434DOPC   D2B 5200   7.085   2.877   2.299
  434DOPC   C3B 5201   6.960   2.837   2.758
  434DOPC   C4B 5202   6.838   2.875   3.238
  435DOPC   NC3 5203   6.822   9.603   1.097
  435DOPC   PO4 5204   6.813   0.007   1.009
  435DOPC   GL1 5205   6.740   0.217   1.389
  435DOPC   GL2 5206   6.634   9.919   1.449
  435DOPC   C1A 5207   6.938   0.224   1.781
  435DOPC   D2A 5208   6.984   9.993   2.233
  435DOPC   C3A 5209   6.833   9.980   2.682
  435DOPC   C4A 5210   6.594   0.007   3.111
  435DOPC   C1B 5211   6.607   9.833   1.889
  435DOPC   D2B 5212   6.620   9.625   2.358
  435DOPC   C3B 5213   6.409   9.663   2.784
  435DOPC   C4B 5214   6.085   9.797   3.147
  436DOPC   NC3 5215   8.308   4.318   0.999
  436DOPC   PO4 5216   8.120   4.616   1.194
  436DOPC   GL1 5217   8.135   4.420   1.584
  436DOPC   GL2 5218   8.081   4.147   1.448
  436DOPC   C1A 5219   8.049   4.384   2.034
  436DOPC   D2A 5220   7.989   4.314   2.544
  436DOPC   C3A 5221   7.880   4.378   3.001
  436DOPC   C4A 5222   7.752   4.537   3.450
  436DOPC   C1B 5223   7.806   4.038   1.783
  436DOPC   D2B 5224   7.614   4.146   2.254
  436DOPC   C3B 5225   7.589   4.073   2.739
  436DOPC   C4B 5226   7.624   3.974   3.241
  437DOPC   NC3 5227  13.679   9.477   1.384
  437DOPC   PO4 5228  13.387   9.721   1.236
  437DOPC   GL1 5229  13.185   9.743   1.668
  437DOPC   GL2 5230  13.301   9.470   1.671
  437DOPC   C1A 5231  13.281   9.822   2.112
  437DOPC   D2A 5232  13.348   9.921   2.611
  437DOPC   C3A 5233  13.212   9.711   3.012
  437DOPC   C4A 5234  13.404   9.560   3.467
  437DOPC   C1B 5235  13.472   9.308   2.051
  437DOPC   D2B 5236  13.467   9.056   2.489
  437DOPC   C3B 5237  13.286   9.184   2.912
  437DOPC   C4B 5238  12.980   9.348   3.283
  438DOPC   NC3 5239  10.464   6.468   1.108
  438DOPC   PO4 5240  10.316   6.184   1.344
  438DOPC   GL1 5241  10.239   6.531   1.606
  438DOPC   GL2 5242  10.522   6.650   1.552
  438DOPC   C1A 5243  10.369   6.504   2.030
  438DOPC   D2A 5244  10.738   6.568   2.366
  438DOPC   C3A 5245  10.651   6.622   2.812
  438DOPC   C4A 5246  10.560   6.586   3.305
  438DOPC   C1B 5247  10.780   6.811   1.925
  438DOPC   D2B 5248  10.942   7.025   2.391
  438DOPC   C3B 5249  10.934   7.017   2.881
  438DOPC   C4B 5250  10.933   6.934   3.378
  439DOPC   NC3 5251   0.384   4.104   1.176
  439DOPC   PO4 5252   0.542   4.428   1.352
  439DOPC   GL1 5253   0.747   4.237   1.685
  439DOPC   GL2 5254   0.574   3.984   1.596
  439DOPC   C1A 5255   0.705   4.377   2.120
  439DOPC   D2A 5256   0.710   4.462   2.625
  439DOPC   C3A 5257   0.603   4.325   3.082
  439DOPC   C4A 5258   0.423   4.238   3.547
  439DOPC   C1B 5259   0.277   4.107   1.907
  439DOPC   D2B 5260   0.230   4.411   2.309
  439DOPC   C3B 5261   0.254   4.224   2.734
  439DOPC   C4B 5262   0.251   3.950   3.155
  440DOPC   NC3 5263  11.288   3.485   1.143
  440DOPC   PO4 5264  11.692   3.444   1.102
  440DOPC   GL1 5265  11.705   3.308   1.510
  440DOPC   GL2 5266  11.433   3.154   1.450
  440DOPC   C1A 5267  11.659   3.367   1.962
  440DOPC   D2A 5268  11.602   3.386   2.459
  440DOPC   C3A 5269  11.601   3.390   2.931
  440DOPC   C4A 5270  11.577   3.311   3.429
  440DOPC   C1B 5271  11.174   3.348   1.771
  440DOPC   D2B 5272  11.041   3.505   2.241
  440DOPC   C3B 5273  11.139   3.444   2.707
  440DOPC   C4B 5274  11.174   3.516   3.205
  441DOPC   NC3 5275   7.544   6.788   1.296
  441DOPC   PO4 5276   7.194   6.895   1.452
  441DOPC   GL1 5277   7.339   6.763   1.808
  441DOPC   GL2 5278   7.385   6.469   1.691
  441DOPC   C1A 5279   7.236   6.776   2.256
  441DOPC   D2A 5280   7.316   6.697   2.748
  441DOPC   C3A 5281   7.317   6.832   3.194
  441DOPC   C4A 5282   7.258   7.080   3.622
  441DOPC   C1B 5283   7.183   6.288   2.065
  441DOPC   D2B 5284   6.978   6.379   2.532
  441DOPC   C3B 5285   6.841   6.353   2.998
  441DOPC   C4B 5286   6.801   6.242   3.481
  442DOPC   NC3 5287   5.280   4.408   1.083
  442DOPC   PO4 5288   5.602   4.360   1.320
  442DOPC   GL1 5289   5.644   4.125   1.659
  442DOPC   GL2 5290   5.344   4.050   1.679
  442DOPC   C1A 5291   5.656   4.333   2.041
  442DOPC   D2A 5292   5.642   4.548   2.494
  442DOPC   C3A 5293   5.431   4.278   2.809
  442DOPC   C4A 5294   5.337   3.979   3.192
  442DOPC   C1B 5295   5.288   3.902   2.102
  442DOPC   D2B 5296   5.337   3.793   2.595
  442DOPC   C3B 5297   4.982   4.007   2.825
  442DOPC   C4B 5298   4.701   4.331   3.073
  443DOPC   NC3 5299   8.663   7.571   1.316
  443DOPC   PO4 5300   8.265   7.532   1.370
  443DOPC   GL1 5301   8.337   7.227   1.585
  443DOPC   GL2 5302   8.634   7.196   1.597
  443DOPC   C1A 5303   8.336   7.289   2.006
  443DOPC   D2A 5304   8.574   7.230   2.426
  443DOPC   C3A 5305   8.413   7.479   2.779
  443DOPC   C4A 5306   8.421   7.667   3.229
  443DOPC   C1B 5307   8.830   7.408   1.959
  443DOPC   D2B 5308   9.082   7.531   2.388
  443DOPC   C3B 5309   8.926   7.594   2.836
  443DOPC   C4B 5310   8.880   7.901   3.232
  444DOPC   NC3 5311   3.091   8.494   0.965
  444DOPC   PO4 5312   3.210   8.677   1.303
  444DOPC   GL1 5313   3.357   8.499   1.633
  444DOPC   GL2 5314   3.202   8.240   1.651
  444DOPC   C1A 5315   3.586   8.531   2.007
  444DOPC   D2A 5316   3.823   8.456   2.454
  444DOPC   C3A 5317   3.541   8.449   2.833
  444DOPC   C4A 5318   3.265   8.491   3.246
  444DOPC   C1B 5319   3.324   8.094   2.058
  444DOPC   D2B 5320   3.489   8.027   2.531
  444DOPC   C3B 5321   3.447   7.969   3.001
  444DOPC   C4B 5322   3.367   8.030   3.485
  445DOPC   NC3 5323   4.931   5.867   1.163
  445DOPC   PO4 5324   4.846   6.233   1.296
  445DOPC   GL1 5325   5.034   6.099   1.621
  445DOPC   GL2 5326   5.044   5.807   1.614
  445DOPC   C1A 5327   5.116   6.259   2.025
  445DOPC   D2A 5328   5.130   6.498   2.469
  445DOPC   C3A 5329   5.075   6.279   2.888
  445DOPC   C4A 5330   5.081   6.063   3.341
  445DOPC   C1B 5331   5.179   5.735   2.031
  445DOPC   D2B 5332   5.195   5.554   2.500
  445DOPC   C3B 5333   4.907   5.733   2.832
  445DOPC   C4B 5334   4.644   5.787   3.250
  446DOPC   NC3 5335  15.391   3.339   1.010
  446DOPC   PO4 5336  15.461   3.421   1.393
  446DOPC   GL1 5337  15.132   3.245   1.653
  446DOPC   GL2 5338  15.335   3.034   1.724
  446DOPC   C1A 5339  14.914   3.413   2.034
  446DOPC   D2A 5340  14.634   3.593   2.430
  446DOPC   C3A 5341  14.693   3.628   2.903
  446DOPC   C4A 5342  14.914   3.812   3.315
  446DOPC   C1B 5343  15.361   3.124   2.160
  446DOPC   D2B 5344  15.395   3.164   2.661
  446DOPC   C3B 5345  15.552   3.391   3.048
  446DOPC   C4B 5346  15.442   3.776   3.350
  447DOPC   NC3 5347   8.824   9.486   0.854
  447DOPC   PO4 5348   8.554   9.449   1.159
  447DOPC   GL1 5349   8.671   9.490   1.583
  447DOPC   GL2 5350   8.624   9.789   1.588
  447DOPC   C1A 5351   8.775   9.407   2.030
  447DOPC   D2A 5352   8.886   9.437   2.532
  447DOPC   C3A 5353   8.731   9.365   2.982
  447DOPC   C4A 5354   8.586   9.369   3.457
  447DOPC   C1B 5355   8.734   9.926   2.003
  447DOPC   D2B 5356   8.858   0.017   2.489
  447DOPC   C3B 5357   8.960   9.811   2.906
  447DOPC   C4B 5358   9.064   9.567   3.330
  448DOPC   NC3 5359   1.973   2.702   1.040
  448DOPC   PO4 5360   1.823   2.345   1.127
  448DOPC   GL1 5361   1.727   2.511   1.483
  448DOPC   GL2 5362   1.620   2.789   1.406
  448DOPC   C1A 5363   1.749   2.408   1.909
  448DOPC   D2A 5364   1.680   2.271   2.393
  448DOPC   C3A 5365   1.747   2.552   2.777
  448DOPC   C4A 5366   1.683   2.832   3.196
  448DOPC   C1B 5367   1.591   2.885   1.853
  448DOPC   D2B 5368   1.607   2.850   2.361
  448DOPC   C3B 5369   1.665   3.116   2.768
  448DOPC   C4B 5370   1.551   3.347   3.216
  449DOPC   NC3 5371   1.911   9.605   1.109
  449DOPC   PO4 5372   2.013   9.224   1.166
  449DOPC   GL1 5373   2.099   9.260   1.587
  449DOPC   GL2 5374   2.067   9.567   1.596
  449DOPC   C1A 5375   2.111   9.235   2.039
  449DOPC   D2A 5376   2.061   9.318   2.526
  449DOPC   C3A 5377   2.178   9.437   2.968
  449DOPC   C4A 5378   2.124   9.552   3.459
  449DOPC   C1B 5379   1.952   9.710   2.036
  449DOPC   D2B 5380   1.770   9.756   2.505
  449DOPC   C3B 5381   1.790   9.790   2.976
  449DOPC   C4B 5382   1.630   9.820   3.446
  450DOPC   NC3 5383   5.546   4.832   1.093
  450DOPC   PO4 5384   5.546   5.222   1.184
  450DOPC   GL1 5385   5.918   5.226   1.407
  450DOPC   GL2 5386   5.851   4.918   1.485
  450DOPC   C1A 5387   5.963   5.362   1.805
  450DOPC   D2A 5388   6.086   5.412   2.295
  450DOPC   C3A 5389   6.052   5.280   2.757
  450DOPC   C4A 5390   6.022   5.123   3.230
  450DOPC   C1B 5391   5.688   4.951   1.911
  450DOPC   D2B 5392   5.696   5.077   2.409
  450DOPC   C3B 5393   5.652   4.938   2.864
  450DOPC   C4B 5394   5.426   4.633   3.184
  451DOPC   NC3 5395  13.576   8.984   1.216
  451DOPC   PO4 5396  13.182   8.912   1.258
  451DOPC   GL1 5397  13.185   9.038   1.674
  451DOPC   GL2 5398  13.505   9.077   1.659
  451DOPC   C1A 5399  13.204   8.848   2.077
  451DOPC   D2A 5400  13.263   8.560   2.487
  451DOPC   C3A 5401  13.272   8.592   2.956
  451DOPC   C4A 5402  13.251   8.888   3.352
  451DOPC   C1B 5403  13.732   8.887   2.009
  451DOPC   D2B 5404  13.785   8.641   2.449
  451DOPC   C3B 5405  13.717   8.841   2.880
  451DOPC   C4B 5406  13.685   9.150   3.268
  452DOPC   NC3 5407  12.090   1.605   1.343
  452DOPC   PO4 5408  12.183   1.226   1.224
  452DOPC   GL1 5409  12.396   1.321   1.582
  452DOPC   GL2 5410  12.364   1.059   1.723
  452DOPC   C1A 5411  12.188   1.566   1.879
  452DOPC   D2A 5412  11.916   1.601   2.297
  452DOPC   C3A 5413  11.998   1.547   2.766
  452DOPC   C4A 5414  12.015   1.411   3.257
  452DOPC   C1B 5415  12.081   1.098   2.099
  452DOPC   D2B 5416  11.741   1.163   2.495
  452DOPC   C3B 5417  11.622   1.217   2.966
  452DOPC   C4B 5418  11.543   1.144   3.458
  453DOPC   NC3 5419  19.431   8.042   1.104
  453DOPC   PO4 5420  19.340   7.986   1.487
  453DOPC   GL1 5421  19.581   7.828   1.800
  453DOPC   GL2 5422  19.778   8.039   1.753
  453DOPC   C1A 5423  19.510   7.874   2.246
  453DOPC   D2A 5424  19.461   8.048   2.725
  453DOPC   C3A 5425  19.676   8.352   3.022
  453DOPC   C4A 5426  19.607   8.676   3.398
  453DOPC   C1B 5427  19.956   8.121   2.161
  453DOPC   D2B 5428  19.984   8.146   2.669
  453DOPC   C3B 5429  19.857   7.874   3.048
  453DOPC   C4B 5430  19.771   7.751   3.515
  454DOPC   NC3 5431   1.149   4.936   1.036
  454DOPC   PO4 5432   1.329   5.269   1.185
  454DOPC   GL1 5433   1.557   5.173   1.568
  454DOPC   GL2 5434   1.422   4.891   1.468
  454DOPC   C1A 5435   1.525   5.128   2.033
  454DOPC   D2A 5436   1.398   5.018   2.524
  454DOPC   C3A 5437   1.365   5.025   3.005
  454DOPC   C4A 5438   1.334   4.995   3.510
  454DOPC   C1B 5439   1.219   4.765   1.834
  454DOPC   D2B 5440   0.990   4.796   2.288
  454DOPC   C3B 5441   0.852   4.976   2.708
  454DOPC   C4B 5442   0.539   5.268   2.972
  455DOPC   NC3 5443  10.258   7.360   0.905
  455DOPC   PO4 5444  10.077   7.589   1.183
  455DOPC   GL1 5445  10.178   7.483   1.597
  455DOPC   GL2 5446  10.206   7.216   1.427
  455DOPC   C1A 5447  10.406   7.494   2.007
  455DOPC   D2A 5448  10.636   7.451   2.470
  455DOPC   C3A 5449  10.680   7.446   2.958
  455DOPC   C4A 5450  10.710   7.466   3.460
  455DOPC   C1B 5451  10.344   7.030   1.783
  455DOPC   D2B 5452  10.451   7.000   2.261
  455DOPC   C3B 5453  10.414   7.060   2.723
  455DOPC   C4B 5454  10.451   7.067   3.214
  456DOPC   NC3 5455  12.647   3.615   1.160
  456DOPC   PO4 5456  12.921   3.315   1.231
  456DOPC   GL1 5457  13.045   3.442   1.658
  456DOPC   GL2 5458  12.964   3.711   1.550
  456DOPC   C1A 5459  12.830   3.427   2.067
  456DOPC   D2A 5460  12.551   3.399   2.497
  456DOPC   C3A 5461  12.509   3.291   2.967
  456DOPC   C4A 5462  12.463   3.169   3.450
  456DOPC   C1B 5463  12.782   3.899   1.890
  456DOPC   D2B 5464  12.797   3.877   2.394
  456DOPC   C3B 5465  12.749   3.723   2.840
  456DOPC   C4B 5466  12.780   3.604   3.323
  457DOPC   NC3 5467  12.180   9.360   1.001
  457DOPC   PO4 5468  12.460   9.474   1.274
  457DOPC   GL1 5469  12.322   9.282   1.649
  457DOPC   GL2 5470  12.035   9.357   1.516
  457DOPC   C1A 5471  12.377   9.395   2.074
  457DOPC   D2A 5472  12.357   9.693   2.493
  457DOPC   C3A 5473  12.153   9.586   2.906
  457DOPC   C4A 5474  11.959   9.185   3.145
  457DOPC   C1B 5475  11.789   9.607   1.816
  457DOPC   D2B 5476  11.548   9.855   2.193
  457DOPC   C3B 5477  11.567   9.931   2.666
  457DOPC   C4B 5478  11.729   9.846   3.136
  458DOPC   NC3 5479   3.085   6.874   1.017
  458DOPC   PO4 5480   3.200   6.739   1.381
  458DOPC   GL1 5481   3.150   6.891   1.789
  458DOPC   GL2 5482   3.165   7.185   1.683
  458DOPC   C1A 5483   2.916   6.841   2.187
  458DOPC   D2A 5484   2.541   6.836   2.536
  458DOPC   C3A 5485   2.652   6.609   2.940
  458DOPC   C4A 5486   2.795   6.298   3.302
  458DOPC   C1B 5487   2.911   7.316   2.025
  458DOPC   D2B 5488   2.814   7.286   2.522
  458DOPC   C3B 5489   2.626   7.130   2.939
  458DOPC   C4B 5490   2.363   6.866   3.285
  459DOPC   NC3 5491  14.183   4.470   0.985
  459DOPC   PO4 5492  13.967   4.728   1.222
  459DOPC   GL1 5493  14.022   4.580   1.618
  459DOPC   GL2 5494  14.141   4.325   1.482
  459DOPC   C1A 5495  13.970   4.435   2.042
  459DOPC   D2A 5496  13.885   4.292   2.510
  459DOPC   C3A 5497  13.956   4.537   2.903
  459DOPC   C4A 5498  14.062   4.799   3.315
  459DOPC   C1B 5499  14.279   4.091   1.845
  459DOPC   D2B 5500  14.297   4.004   2.339
  459DOPC   C3B 5501  14.331   4.192   2.769
  459DOPC   C4B 5502  14.311   4.355   3.230
  460DOPC   NC3 5503  12.035   5.617   0.998
  460DOPC   PO4 5504  12.414   5.617   1.158
  460DOPC   GL1 5505  12.278   5.635   1.516
  460DOPC   GL2 5506  11.987   5.620   1.492
  460DOPC   C1A 5507  12.432   5.657   1.925
  460DOPC   D2A 5508  12.551   5.634   2.417
  460DOPC   C3A 5509  12.326   5.574   2.835
  460DOPC   C4A 5510  12.079   5.602   3.263
  460DOPC   C1B 5511  11.952   5.469   1.921
  460DOPC   D2B 5512  12.000   5.544   2.423
  460DOPC   C3B 5513  11.846   5.776   2.811
  460DOPC   C4B 5514  11.693   5.938   3.257
  461DOPC   NC3 5515   8.465   5.995   1.276
  461DOPC   PO4 5516   8.734   6.268   1.138
  461DOPC   GL1 5517   8.802   6.263   1.560
  461DOPC   GL2 5518   8.509   6.326   1.637
  461DOPC   C1A 5519   9.091   6.235   1.916
  461DOPC   D2A 5520   9.355   6.307   2.347
  461DOPC   C3A 5521   9.084   6.401   2.731
  461DOPC   C4A 5522   8.673   6.501   3.014
  461DOPC   C1B 5523   8.590   6.293   2.065
  461DOPC   D2B 5524   8.628   6.262   2.562
  461DOPC   C3B 5525   8.432   5.975   2.886
  461DOPC   C4B 5526   8.148   5.639   3.136
  462DOPC   NC3 5527  18.282   2.177   1.404
  462DOPC   PO4 5528  17.946   2.022   1.256
  462DOPC   GL1 5529  17.824   1.903   1.669
  462DOPC   GL2 5530  18.122   1.828   1.687
  462DOPC   C1A 5531  17.771   1.868   2.100
  462DOPC   D2A 5532  17.904   1.636   2.520
  462DOPC   C3A 5533  17.936   1.842   2.941
  462DOPC   C4A 5534  18.147   2.120   3.295
  462DOPC   C1B 5535  18.311   1.822   2.088
  462DOPC   D2B 5536  18.626   1.999   2.438
  462DOPC   C3B 5537  18.455   1.807   2.825
  462DOPC   C4B 5538  18.291   1.605   3.246
  463DOPC   NC3 5539   5.573   0.607   1.123
  463DOPC   PO4 5540   5.803   0.923   1.209
  463DOPC   GL1 5541   5.564   0.991   1.571
  463DOPC   GL2 5542   5.582   0.686   1.608
  463DOPC   C1A 5543   5.558   1.032   2.009
  463DOPC   D2A 5544   5.638   1.085   2.495
  463DOPC   C3A 5545   5.730   0.958   2.936
  463DOPC   C4A 5546   5.805   0.639   3.307
  463DOPC   C1B 5547   5.723   0.534   2.018
  463DOPC   D2B 5548   5.788   0.206   2.411
  463DOPC   C3B 5549   6.019   0.199   2.826
  463DOPC   C4B 5550   6.203   0.296   3.284
  464DOPC   NC3 5551  11.892   1.929   0.986
  464DOPC   PO4 5552  11.622   1.806   1.261
  464DOPC   GL1 5553  11.713   2.081   1.584
  464DOPC   GL2 5554  11.974   2.128   1.418
  464DOPC   C1A 5555  11.715   2.008   2.044
  464DOPC   D2A 5556  11.801   2.034   2.547
  464DOPC   C3A 5557  11.781   1.937   3.021
  464DOPC   C4A 5558  11.572   1.653   3.379
  464DOPC   C1B 5559  12.154   2.064   1.796
  464DOPC   D2B 5560  12.236   1.997   2.282
  464DOPC   C3B 5561  12.266   2.004   2.744
  464DOPC   C4B 5562  12.304   1.838   3.194
  465DOPC   NC3 5563   8.468   9.947   1.166
  465DOPC   PO4 5564   8.747   0.191   1.334
  465DOPC   GL1 5565   8.682   0.454   1.689
  465DOPC   GL2 5566   8.854   0.687   1.575
  465DOPC   C1A 5567   8.661   0.429   2.145
  465DOPC   D2A 5568   8.673   0.504   2.644
  465DOPC   C3A 5569   8.625   0.198   2.983
  465DOPC   C4A 5570   8.632   9.858   3.331
  465DOPC   C1B 5571   9.137   0.917   1.874
  465DOPC   D2B 5572   9.227   1.056   2.353
  465DOPC   C3B 5573   9.161   0.860   2.773
  465DOPC   C4B 5574   9.051   0.656   3.212
  466DOPC   NC3 5575  18.609   7.152   1.323
  466DOPC   PO4 5576  18.572   7.534   1.442
  466DOPC   GL1 5577  18.222   7.349   1.586
  466DOPC   GL2 5578  18.026   7.552   1.494
  466DOPC   C1A 5579  18.295   7.345   2.032
  466DOPC   D2A 5580  18.263   7.467   2.519
  466DOPC   C3A 5581  18.264   7.256   2.935
  466DOPC   C4A 5582  18.353   6.848   3.214
  466DOPC   C1B 5583  17.925   7.690   1.897
  466DOPC   D2B 5584  17.907   7.793   2.370
  466DOPC   C3B 5585  17.977   7.755   2.830
  466DOPC   C4B 5586  17.987   7.572   3.282
  467DOPC   NC3 5587  10.337   3.964   0.994
  467DOPC   PO4 5588  10.608   4.186   1.187
  467DOPC   GL1 5589  10.303   4.241   1.459
  467DOPC   GL2 5590  10.195   3.946   1.441
  467DOPC   C1A 5591  10.404   4.190   1.885
  467DOPC   D2A 5592  10.395   3.992   2.346
  467DOPC   C3A 5593  10.643   4.046   2.749
  467DOPC   C4A 5594  10.929   4.136   3.143
  467DOPC   C1B 5595  10.179   3.725   1.832
  467DOPC   D2B 5596  10.043   3.607   2.304
  467DOPC   C3B 5597  10.166   3.741   2.734
  467DOPC   C4B 5598  10.307   3.990   3.141
  468DOPC   NC3 5599   4.974   0.456   1.051
  468DOPC   PO4 5600   4.738   0.155   1.187
  468DOPC   GL1 5601   4.891   0.144   1.606
  468DOPC   GL2 5602   5.012   0.416   1.551
  468DOPC   C1A 5603   4.804   0.273   2.028
  468DOPC   D2A 5604   4.661   0.432   2.487
  468DOPC   C3A 5605   4.945   0.407   2.865
  468DOPC   C4A 5606   5.360   0.421   3.144
  468DOPC   C1B 5607   5.198   0.589   1.941
  468DOPC   D2B 5608   5.228   0.809   2.388
  468DOPC   C3B 5609   5.226   0.857   2.860
  468DOPC   C4B 5610   5.284   0.900   3.352
  469DOPC   NC3 5611  16.057   5.393   1.113
  469DOPC   PO4 5612  15.967   5.619   1.429
  469DOPC   GL1 5613  15.867   5.479   1.782
  469DOPC   GL2 5614  15.573   5.488   1.833
  469DOPC   C1A 5615  15.969   5.413   2.185
  469DOPC   D2A 5616  15.830   5.314   2.637
  469DOPC   C3A 5617  15.993   5.594   2.975
  469DOPC   C4A 5618  16.121   5.808   3.405
  469DOPC   C1B 5619  15.480   5.529   2.304
  469DOPC   D2B 5620  15.470   5.600   2.828
  469DOPC   C3B 5621  15.608   5.784   3.261
  469DOPC   C4B 5622  15.745   6.067   3.660
  470DOPC   NC3 5623   0.364   1.229   1.023
  470DOPC   PO4 5624   0.429   0.896   1.241
  470DOPC   GL1 5625   0.235   0.896   1.647
  470DOPC   GL2 5626   0.106   1.162   1.550
  470DOPC   C1A 5627   0.328   0.971   2.084
  470DOPC   D2A 5628   0.271   1.069   2.582
  470DOPC   C3A 5629   0.291   1.021   3.058
  470DOPC   C4A 5630   0.245   0.996   3.561
  470DOPC   C1B 5631   0.108   1.427   1.927
  470DOPC   D2B 5632   0.230   1.593   2.394
  470DOPC   C3B 5633   0.357   1.498   2.843
  470DOPC   C4B 5634   0.515   1.392   3.315
  471DOPC   NC3 5635   4.464   3.411   1.118
  471DOPC   PO4 5636   4.588   3.785   1.111
  471DOPC   GL1 5637   4.758   3.742   1.505
  471DOPC   GL2 5638   4.642   3.453   1.551
  471DOPC   C1A 5639   4.795   3.826   1.937
  471DOPC   D2A 5640   4.843   3.699   2.426
  471DOPC   C3A 5641   4.617   3.629   2.847
  471DOPC   C4A 5642   4.448   3.488   3.302
  471DOPC   C1B 5643   4.549   3.385   1.988
  471DOPC   D2B 5644   4.501   3.308   2.471
  471DOPC   C3B 5645   4.287   3.231   2.879
  471DOPC   C4B 5646   4.095   3.104   3.328
  472DOPC   NC3 5647  18.854   1.994   1.216
  472DOPC   PO4 5648  18.977   2.358   1.354
  472DOPC   GL1 5649  18.979   2.328   1.797
  472DOPC   GL2 5650  18.938   2.023   1.753
  472DOPC   C1A 5651  18.919   2.409   2.243
  472DOPC   D2A 5652  18.818   2.387   2.738
  472DOPC   C3A 5653  19.009   2.370   3.173
  472DOPC   C4A 5654  19.067   2.368   3.667
  472DOPC   C1B 5655  19.070   1.866   2.152
  472DOPC   D2B 5656  19.308   1.775   2.595
  472DOPC   C3B 5657  18.986   1.920   2.915
  472DOPC   C4B 5658  18.644   1.978   3.273
  473DOPC   NC3 5659  11.235   8.957   1.068
  473DOPC   PO4 5660  11.078   8.639   1.260
  473DOPC   GL1 5661  11.172   8.663   1.679
  473DOPC   GL2 5662  11.436   8.798   1.600
  473DOPC   C1A 5663  11.073   8.683   2.122
  473DOPC   D2A 5664  11.022   8.801   2.594
  473DOPC   C3A 5665  11.127   8.610   2.993
  473DOPC   C4A 5666  11.201   8.315   3.372
  473DOPC   C1B 5667  11.527   8.892   2.031
  473DOPC   D2B 5668  11.482   9.035   2.510
  473DOPC   C3B 5669  11.217   9.174   2.882
  473DOPC   C4B 5670  10.940   9.381   3.246
  474DOPC   NC3 5671   6.918   1.809   1.321
  474DOPC   PO4 5672   6.979   2.205   1.346
  474DOPC   GL1 5673   6.741   2.151   1.659
  474DOPC   GL2 5674   6.502   2.011   1.531
  474DOPC   C1A 5675   6.771   2.049   2.078
  474DOPC   D2A 5676   6.519   2.026   2.491
  474DOPC   C3A 5677   6.715   1.958   2.900
  474DOPC   C4A 5678   6.858   1.983   3.370
  474DOPC   C1B 5679   6.299   1.923   1.941
  474DOPC   D2B 5680   6.086   1.784   2.405
  474DOPC   C3B 5681   6.181   1.871   2.865
  474DOPC   C4B 5682   6.374   2.071   3.275
  475DOPC   NC3 5683   4.426   4.646   1.196
  475DOPC   PO4 5684   4.083   4.854   1.135
  475DOPC   GL1 5685   3.879   4.771   1.530
  475DOPC   GL2 5686   4.018   4.498   1.462
  475DOPC   C1A 5687   3.879   4.815   1.988
  475DOPC   D2A 5688   3.914   4.968   2.475
  475DOPC   C3A 5689   3.923   4.659   2.829
  475DOPC   C4A 5690   4.128   4.412   3.208
  475DOPC   C1B 5691   4.187   4.429   1.864
  475DOPC   D2B 5692   4.146   4.510   2.363
  475DOPC   C3B 5693   4.276   4.241   2.742
  475DOPC   C4B 5694   4.363   3.958   3.143
  476DOPC   NC3 5695  13.328   8.454   1.097
  476DOPC   PO4 5696  13.729   8.495   1.144
  476DOPC   GL1 5697  13.776   8.690   1.536
  476DOPC   GL2 5698  13.460   8.655   1.536
  476DOPC   C1A 5699  13.803   8.414   1.876
  476DOPC   D2A 5700  13.578   8.200   2.277
  476DOPC   C3A 5701  13.639   8.252   2.744
  476DOPC   C4A 5702  13.750   8.409   3.193
  476DOPC   C1B 5703  13.288   8.396   1.845
  476DOPC   D2B 5704  13.063   8.160   2.223
  476DOPC   C3B 5705  13.168   8.089   2.677
  476DOPC   C4B 5706  13.358   8.030   3.134
  477DOPC   NC3 5707   0.562   8.943   1.009
  477DOPC   PO4 5708   0.298   8.873   1.292
  477DOPC   GL1 5709   0.606   8.978   1.598
  477DOPC   GL2 5710   0.702   8.680   1.548
  477DOPC   C1A 5711   0.706   8.936   2.035
  477DOPC   D2A 5712   0.542   8.812   2.491
  477DOPC   C3A 5713   0.503   8.913   2.945
  477DOPC   C4A 5714   0.384   9.074   3.402
  477DOPC   C1B 5715   0.521   8.473   1.927
  477DOPC   D2B 5716   0.389   8.318   2.400
  477DOPC   C3B 5717   0.428   8.396   2.871
  477DOPC   C4B 5718   0.486   8.549   3.350
  478DOPC   NC3 5719  16.337   9.890   1.164
  478DOPC   PO4 5720  16.722   9.926   1.274
  478DOPC   GL1 5721  16.676   9.581   1.518
  478DOPC   GL2 5722  16.397   9.675   1.612
  478DOPC   C1A 5723  16.873   9.530   1.911
  478DOPC   D2A 5724  17.117   9.431   2.344
  478DOPC   C3A 5725  17.048   9.387   2.810
  478DOPC   C4A 5726  16.934   9.214   3.269
  478DOPC   C1B 5727  16.399   9.635   2.073
  478DOPC   D2B 5728  16.539   9.431   2.534
  478DOPC   C3B 5729  16.590   9.526   3.008
  478DOPC   C4B 5730  16.667   9.661   3.490
  479DOPC   NC3 5731   9.941   6.459   1.105
  479DOPC   PO4 5732  10.103   6.816   1.195
  479DOPC   GL1 5733   9.928   6.901   1.615
  479DOPC   GL2 5734   9.800   6.623   1.540
  479DOPC   C1A 5735   9.984   6.833   2.074
  479DOPC   D2A 5736  10.189   6.644   2.507
  479DOPC   C3A 5737  10.161   6.624   2.980
  479DOPC   C4A 5738  10.111   6.732   3.471
  479DOPC   C1B 5739   9.891   6.353   1.886
  479DOPC   D2B 5740   9.935   6.221   2.368
  479DOPC   C3B 5741   9.711   6.499   2.682
  479DOPC   C4B 5742   9.355   6.828   2.827
  480DOPC   NC3 5743  18.121   1.169   1.178
  480DOPC   PO4 5744  18.202   1.559   1.275
  480DOPC   GL1 5745  17.909   1.463   1.588
  480DOPC   GL2 5746  18.125   1.238   1.633
  480DOPC   C1A 5747  17.961   1.416   2.022
  480DOPC   D2A 5748  18.171   1.216   2.429
  480DOPC   C3A 5749  18.005   1.270   2.873
  480DOPC   C4A 5750  17.883   1.216   3.343
  480DOPC   C1B 5751  18.444   1.302   1.946
  480DOPC   D2B 5752  18.632   1.460   2.390
  480DOPC   C3B 5753  18.513   1.290   2.820
  480DOPC   C4B 5754  18.429   1.126   3.276
  481DOPC   NC3 5755  10.953   9.755   1.091
  481DOPC   PO4 5756  10.685   0.010   1.228
  481DOPC   GL1 5757  10.845   9.935   1.615
  481DOPC   GL2 5758  10.925   9.642   1.545
  481DOPC   C1A 5759  10.547   9.878   1.943
  481DOPC   D2A 5760  10.259   9.810   2.339
  481DOPC   C3A 5761  10.193   9.975   2.771
  481DOPC   C4A 5762   9.903   0.206   3.092
  481DOPC   C1B 5763  10.722   9.416   1.871
  481DOPC   D2B 5764  10.428   9.304   2.267
  481DOPC   C3B 5765  10.261   9.446   2.691
  481DOPC   C4B 5766   9.923   9.592   3.023
  482DOPC   NC3 5767   8.257   8.716   1.026
  482DOPC   PO4 5768   7.876   8.828   1.073
  482DOPC   GL1 5769   8.108   8.878   1.448
  482DOPC   GL2 5770   8.149   9.169   1.360
  482DOPC   C1A 5771   8.103   8.789   1.895
  482DOPC   D2A 5772   8.209   8.684   2.384
  482DOPC   C3A 5773   8.015   8.817   2.805
  482DOPC   C4A 5774   7.754   8.972   3.213
  482DOPC   C1B 5775   7.941   9.321   1.715
  482DOPC   D2B 5776   7.969   9.355   2.213
  482DOPC   C3B 5777   8.115   9.298   2.654
  482DOPC   C4B 5778   8.237   9.179   3.124
  483DOPC   NC3 5779   0.560   7.397   1.128
  483DOPC   PO4 5780   0.614   7.017   1.246
  483DOPC   GL1 5781   0.737   6.887   1.636
  483DOPC   GL2 5782   1.036   6.860   1.580
  483DOPC   C1A 5783   0.743   7.200   1.944
  483DOPC   D2A 5784   0.943   7.520   2.268
  483DOPC   C3A 5785   1.071   7.595   2.713
  483DOPC   C4A 5786   1.247   7.654   3.169
  483DOPC   C1B 5787   1.248   7.181   1.861
  483DOPC   D2B 5788   1.446   7.581   2.147
  483DOPC   C3B 5789   1.582   7.591   2.610
  483DOPC   C4B 5790   1.608   7.319   3.033
  484DOPC   NC3 5791   4.474   5.184   1.032
  484DOPC   PO4 5792   4.543   5.535   1.225
  484DOPC   GL1 5793   4.272   5.457   1.537
  484DOPC   GL2 5794   4.296   5.144   1.489
  484DOPC   C1A 5795   4.324   5.605   1.955
  484DOPC   D2A 5796   4.405   5.740   2.439
  484DOPC   C3A 5797   4.370   5.545   2.877
  484DOPC   C4A 5798   4.260   5.345   3.327
  484DOPC   C1B 5799   4.334   5.080   1.934
  484DOPC   D2B 5800   4.350   5.215   2.427
  484DOPC   C3B 5801   4.301   5.027   2.871
  484DOPC   C4B 5802   4.030   4.895   3.284
  485DOPC   NC3 5803  10.931   2.122   1.209
  485DOPC   PO4 5804  11.071   1.773   1.285
  485DOPC   GL1 5805  11.286   1.925   1.580
  485DOPC   GL2 5806  11.320   2.213   1.451
  485DOPC   C1A 5807  11.166   1.984   1.998
  485DOPC   D2A 5808  11.095   2.177   2.450
  485DOPC   C3A 5809  10.947   2.211   2.902
  485DOPC   C4A 5810  10.819   2.070   3.361
  485DOPC   C1B 5811  11.433   2.378   1.850
  485DOPC   D2B 5812  11.514   2.468   2.351
  485DOPC   C3B 5813  11.452   2.276   2.795
  485DOPC   C4B 5814  11.314   2.081   3.246
  486DOPC   NC3 5815  14.781   6.720   1.079
  486DOPC   PO4 5816  15.063   6.960   1.249
  486DOPC   GL1 5817  15.017   6.900   1.697
  486DOPC   GL2 5818  15.329   6.848   1.721
  486DOPC   C1A 5819  14.811   6.888   2.106
  486DOPC   D2A 5820  14.758   6.941   2.601
  486DOPC   C3A 5821  14.793   6.761   3.037
  486DOPC   C4A 5822  14.881   6.538   3.473
  486DOPC   C1B 5823  15.634   7.012   2.045
  486DOPC   D2B 5824  15.662   7.293   2.463
  486DOPC   C3B 5825  15.470   7.105   2.857
  486DOPC   C4B 5826  15.288   6.843   3.258
  487DOPC   NC3 5827   3.891   7.120   1.181
  487DOPC   PO4 5828   4.064   7.478   1.176
  487DOPC   GL1 5829   3.961   7.355   1.612
  487DOPC   GL2 5830   3.679   7.447   1.528
  487DOPC   C1A 5831   4.004   7.282   2.074
  487DOPC   D2A 5832   4.070   7.329   2.584
  487DOPC   C3A 5833   3.949   7.471   3.035
  487DOPC   C4A 5834   3.623   7.513   3.425
  487DOPC   C1B 5835   3.528   7.560   1.933
  487DOPC   D2B 5836   3.645   7.557   2.421
  487DOPC   C3B 5837   3.539   7.302   2.807
  487DOPC   C4B 5838   3.351   7.129   3.231
  488DOPC   NC3 5839  17.629   6.941   0.982
  488DOPC   PO4 5840  17.350   7.182   1.143
  488DOPC   GL1 5841  17.258   7.109   1.554
  488DOPC   GL2 5842  16.964   7.116   1.476
  488DOPC   C1A 5843  17.353   7.049   1.992
  488DOPC   D2A 5844  17.503   6.939   2.465
  488DOPC   C3A 5845  17.454   6.769   2.910
  488DOPC   C4A 5846  17.359   6.773   3.400
  488DOPC   C1B 5847  16.901   6.876   1.837
  488DOPC   D2B 5848  17.034   6.771   2.315
  488DOPC   C3B 5849  16.993   6.616   2.763
  488DOPC   C4B 5850  17.025   6.403   3.221
  489DOPC   NC3 5851   9.397   7.988   1.058
  489DOPC   PO4 5852   9.796   8.015   1.105
  489DOPC   GL1 5853   9.860   7.983   1.550
  489DOPC   GL2 5854   9.533   8.080   1.527
  489DOPC   C1A 5855  10.047   7.853   1.952
  489DOPC   D2A 5856  10.219   7.865   2.442
  489DOPC   C3A 5857  10.263   8.191   2.812
  489DOPC   C4A 5858  10.193   8.609   3.102
  489DOPC   C1B 5859   9.222   8.137   1.862
  489DOPC   D2B 5860   8.996   8.098   2.319
  489DOPC   C3B 5861   9.109   8.071   2.773
  489DOPC   C4B 5862   9.347   8.119   3.208
  490DOPC   NC3 5863  18.405   9.407   1.043
  490DOPC   PO4 5864  18.711   9.274   1.272
  490DOPC   GL1 5865  18.634   9.432   1.660
  490DOPC   GL2 5866  18.422   9.628   1.566
  490DOPC   C1A 5867  18.665   9.486   2.100
  490DOPC   D2A 5868  18.612   9.571   2.592
  490DOPC   C3A 5869  18.641   9.431   3.046
  490DOPC   C4A 5870  18.640   9.300   3.532
  490DOPC   C1B 5871  18.293   9.855   1.944
  490DOPC   D2B 5872  18.248   0.110   2.384
  490DOPC   C3B 5873  18.406   9.998   2.821
  490DOPC   C4B 5874  18.547   9.878   3.290
  491DOPC   NC3 5875   7.607   9.645   1.257
  491DOPC   PO4 5876   7.281   9.812   1.111
  491DOPC   GL1 5877   7.107   9.884   1.486
  491DOPC   GL2 5878   6.988   9.639   1.521
  491DOPC   C1A 5879   7.342   9.907   1.862
  491DOPC   D2A 5880   7.483   9.895   2.345
  491DOPC   C3A 5881   7.324   9.804   2.786
  491DOPC   C4A 5882   7.087   9.777   3.228
  491DOPC   C1B 5883   7.001   9.540   1.941
  491DOPC   D2B 5884   7.110   9.520   2.421
  491DOPC   C3B 5885   6.894   9.481   2.832
  491DOPC   C4B 5886   6.639   9.493   3.255
  492DOPC   NC3 5887   0.510   2.726   1.180
  492DOPC   PO4 5888   0.155   2.818   1.358
  492DOPC   GL1 5889   0.297   3.112   1.655
  492DOPC   GL2 5890   0.594   3.030   1.575
  492DOPC   C1A 5891   0.293   2.905   2.067
  492DOPC   D2A 5892   0.392   2.577   2.465
  492DOPC   C3A 5893   0.393   2.461   2.941
  492DOPC   C4A 5894   0.338   2.311   3.426
  492DOPC   C1B 5895   0.762   2.742   1.895
  492DOPC   D2B 5896   0.801   2.366   2.233
  492DOPC   C3B 5897   0.809   2.283   2.689
  492DOPC   C4B 5898   0.823   2.269   3.182
  493DOPC   NC3 5899  10.748   5.054   1.165
  493DOPC   PO4 5900  10.567   4.779   1.391
  493DOPC   GL1 5901  10.593   5.090   1.730
  493DOPC   GL2 5902  10.852   5.195   1.612
  493DOPC   C1A 5903  10.683   5.033   2.174
  493DOPC   D2A 5904  10.845   4.865   2.625
  493DOPC   C3A 5905  10.667   4.532   2.914
  493DOPC   C4A 5906  10.551   4.385   3.376
  493DOPC   C1B 5907  11.046   5.323   1.995
  493DOPC   D2B 5908  10.990   5.392   2.492
  493DOPC   C3B 5909  10.820   5.295   2.921
  493DOPC   C4B 5910  10.787   4.911   3.245
  494DOPC   NC3 5911  17.276   3.975   1.208
  494DOPC   PO4 5912  17.544   3.788   1.437
  494DOPC   GL1 5913  17.259   3.996   1.688
  494DOPC   GL2 5914  17.048   3.794   1.669
  494DOPC   C1A 5915  17.468   3.982   2.076
  494DOPC   D2A 5916  17.770   3.675   2.328
  494DOPC   C3A 5917  17.886   3.875   2.730
  494DOPC   C4A 5918  17.732   4.136   3.114
  494DOPC   C1B 5919  16.949   3.820   2.106
  494DOPC   D2B 5920  16.728   3.839   2.558
  494DOPC   C3B 5921  16.947   3.916   2.965
  494DOPC   C4B 5922  17.239   4.167   3.295
  495DOPC   NC3 5923  18.048   0.317   0.994
  495DOPC   PO4 5924  17.984   0.686   1.141
  495DOPC   GL1 5925  18.082   0.818   1.551
  495DOPC   GL2 5926  18.171   0.528   1.604
  495DOPC   C1A 5927  18.083   0.904   1.993
  495DOPC   D2A 5928  18.138   0.709   2.462
  495DOPC   C3A 5929  18.246   0.799   2.921
  495DOPC   C4A 5930  18.104   0.761   3.406
  495DOPC   C1B 5931  18.011   0.392   2.007
  495DOPC   D2B 5932  17.747   0.366   2.441
  495DOPC   C3B 5933  17.996   0.364   2.841
  495DOPC   C4B 5934  18.322   0.343   3.209
  496DOPC   NC3 5935  17.937   8.739   0.919
  496DOPC   PO4 5936  18.050   9.062   1.112
  496DOPC   GL1 5937  18.291   9.199   1.465
  496DOPC   GL2 5938  18.056   9.413   1.431
  496DOPC   C1A 5939  18.234   9.327   1.887
  496DOPC   D2A 5940  18.139   9.549   2.341
  496DOPC   C3A 5941  18.164   9.499   2.816
  496DOPC   C4A 5942  18.193   9.439   3.309
  496DOPC   C1B 5943  17.852   9.626   1.784
  496DOPC   D2B 5944  17.788   9.912   2.194
  496DOPC   C3B 5945  17.882   9.904   2.665
  496DOPC   C4B 5946  18.022   9.912   3.152
  497DOPC   NC3 5947   2.424   5.778   0.889
  497DOPC   PO4 5948   2.066   5.713   1.060
  497DOPC   GL1 5949   2.121   5.551   1.447
  497DOPC   GL2 5950   2.437   5.658   1.402
  497DOPC   C1A 5951   2.249   5.546   1.858
  497DOPC   D2A 5952   2.488   5.573   2.303
  497DOPC   C3A 5953   2.542   5.500   2.771
  497DOPC   C4A 5954   2.749   5.411   3.208
  497DOPC   C1B 5955   2.743   5.560   1.736
  497DOPC   D2B 5956   3.004   5.586   2.175
  497DOPC   C3B 5957   3.007   5.706   2.645
  497DOPC   C4B 5958   3.035   5.838   3.135
  498DOPC   NC3 5959  12.675   8.995   1.259
  498DOPC   PO4 5960  12.270   8.979   1.308
  498DOPC   GL1 5961  12.268   8.808   1.724
  498DOPC   GL2 5962  12.561   8.869   1.694
  498DOPC   C1A 5963  12.255   8.820   2.195
  498DOPC   D2A 5964  12.391   8.800   2.703
  498DOPC   C3A 5965  12.424   8.689   3.181
  498DOPC   C4A 5966  12.478   8.577   3.689
  498DOPC   C1B 5967  12.712   8.971   2.097
  498DOPC   D2B 5968  12.947   8.963   2.545
  498DOPC   C3B 5969  12.854   8.913   3.006
  498DOPC   C4B 5970  12.751   8.942   3.492
  499DOPC   NC3 5971  13.256   7.449   0.964
  499DOPC   PO4 5972  13.020   7.254   1.237
  499DOPC   GL1 5973  13.053   7.275   1.685
  499DOPC   GL2 5974  13.345   7.369   1.610
  499DOPC   C1A 5975  13.066   7.442   2.111
  499DOPC   D2A 5976  13.089   7.580   2.593
  499DOPC   C3A 5977  13.171   7.243   2.907
  499DOPC   C4A 5978  13.283   6.809   3.113
  499DOPC   C1B 5979  13.568   7.553   1.964
  499DOPC   D2B 5980  13.804   7.754   2.364
  499DOPC   C3B 5981  13.572   7.714   2.767
  499DOPC   C4B 5982  13.507   7.539   3.220
  500DOPC   NC3 5983   5.753   7.238   1.006
  500DOPC   PO4 5984   5.595   7.607   1.066
  500DOPC   GL1 5985   5.809   7.599   1.416
  500DOPC   GL2 5986   5.914   7.890   1.372
  500DOPC   C1A 5987   5.790   7.418   1.823
  500DOPC   D2A 5988   5.841   7.260   2.299
  500DOPC   C3A 5989   5.745   7.173   2.749
  500DOPC   C4A 5990   5.567   7.393   3.146
  500DOPC   C1B 5991   5.943   7.938   1.795
  500DOPC   D2B 5992   5.844   7.766   2.262
  500DOPC   C3B 5993   5.629   7.664   2.667
  500DOPC   C4B 5994   5.261   7.781   2.980
  501DOPC   NC3 5995   4.165   1.268   1.318
  501DOPC   PO4 5996   4.544   1.188   1.442
  501DOPC   GL1 5997   4.564   1.131   1.861
  501DOPC   GL2 5998   4.407   0.875   1.770
  501DOPC   C1A 5999   4.446   1.173   2.289
  501DOPC   D2A 6000   4.373   1.193   2.795
  501DOPC   C3A 6001   4.427   1.391   3.232
  501DOPC   C4A 6002   4.599   1.648   3.626
  501DOPC   C1B 6003   4.061   0.950   2.035
  501DOPC   D2B 6004   3.868   1.159   2.447
  501DOPC   C3B 6005   3.918   0.974   2.875
  501DOPC   C4B 6006   4.043   0.695   3.256
  502DOPC   NC3 6007  14.395   1.415   1.121
  502DOPC   PO4 6008  14.777   1.356   1.230
  502DOPC   GL1 6009  14.689   1.317   1.637
  502DOPC   GL2 6010  14.423   1.163   1.532
  502DOPC   C1A 6011  14.578   1.594   1.976
  502DOPC   D2A 6012  14.421   1.737   2.435
  502DOPC   C3A 6013  14.478   1.659   2.906
  502DOPC   C4A 6014  14.478   1.529   3.395
  502DOPC   C1B 6015  14.166   1.231   1.883
  502DOPC   D2B 6016  14.008   1.422   2.316
  502DOPC   C3B 6017  13.977   1.371   2.789
  502DOPC   C4B 6018  14.157   1.158   3.193
  503DOPC   NC3 6019  19.288   4.841   1.239
  503DOPC   PO4 6020  19.240   5.210   1.407
  503DOPC   GL1 6021  19.281   4.935   1.727
  503DOPC   GL2 6022  19.022   4.792   1.632
  503DOPC   C1A 6023  19.232   5.149   2.112
  503DOPC   D2A 6024  19.124   5.272   2.580
  503DOPC   C3A 6025  19.166   5.303   3.038
  503DOPC   C4A 6026  19.258   4.986   3.407
  503DOPC   C1B 6027  18.776   4.979   1.964
  503DOPC   D2B 6028  18.646   5.232   2.382
  503DOPC   C3B 6029  18.688   5.152   2.845
  503DOPC   C4B 6030  18.764   5.127   3.338
  504DOPC   NC3 6031   5.787   5.663   1.233
  504DOPC   PO4 6032   5.410   5.768   1.327
  504DOPC   GL1 6033   5.503   5.521   1.685
  504DOPC   GL2 6034   5.706   5.764   1.728
  504DOPC   C1A 6035   5.592   5.474   2.123
  504DOPC   D2A 6036   5.708   5.623   2.591
  504DOPC   C3A 6037   5.627   5.437   3.022
  504DOPC   C4A 6038   5.499   5.145   3.400
  504DOPC   C1B 6039   5.714   5.967   2.147
  504DOPC   D2B 6040   5.808   6.139   2.628
  504DOPC   C3B 6041   5.746   5.944   3.066
  504DOPC   C4B 6042   5.503   5.749   3.458
  505DOPC   NC3 6043  18.850   7.488   1.024
  505DOPC   PO4 6044  19.185   7.610   1.179
  505DOPC   GL1 6045  19.017   7.658   1.588
  505DOPC   GL2 6046  18.980   7.361   1.619
  505DOPC   C1A 6047  18.923   7.771   2.012
  505DOPC   D2A 6048  18.726   7.669   2.469
  505DOPC   C3A 6049  18.720   7.588   2.948
  505DOPC   C4A 6050  18.909   7.488   3.410
  505DOPC   C1B 6051  18.862   7.264   2.058
  505DOPC   D2B 6052  18.900   7.169   2.568
  505DOPC   C3B 6053  18.782   7.079   3.033
  505DOPC   C4B 6054  18.762   6.971   3.529
  506DOPC   NC3 6055  14.495   8.022   0.994
  506DOPC   PO4 6056  14.778   7.808   1.189
  506DOPC   GL1 6057  14.826   7.940   1.603
  506DOPC   GL2 6058  14.687   8.200   1.501
  506DOPC   C1A 6059  14.614   7.929   2.000
  506DOPC   D2A 6060  14.352   7.796   2.408
  506DOPC   C3A 6061  14.431   7.904   2.855
  506DOPC   C4A 6062  14.601   7.977   3.313
  506DOPC   C1B 6063  14.299   8.236   1.728
  506DOPC   D2B 6064  14.098   8.167   2.188
  506DOPC   C3B 6065  14.135   8.238   2.651
  506DOPC   C4B 6066  14.256   8.323   3.141
  507DOPC   NC3 6067  19.376   2.147   1.153
  507DOPC   PO4 6068  19.285   1.912   1.459
  507DOPC   GL1 6069  19.395   2.268   1.642
  507DOPC   GL2 6070  19.682   2.204   1.533
  507DOPC   C1A 6071  19.400   2.248   2.088
  507DOPC   D2A 6072  19.291   2.275   2.583
  507DOPC   C3A 6073  19.478   2.110   2.990
  507DOPC   C4A 6074  19.859   2.061   3.317
  507DOPC   C1B 6075  19.809   1.958   1.884
  507DOPC   D2B 6076  19.764   1.819   2.362
  507DOPC   C3B 6077  19.926   1.824   2.807
  507DOPC   C4B 6078   0.027   1.586   3.226
  508DOPC   NC3 6079   7.866   0.456   1.159
  508DOPC   PO4 6080   7.692   0.155   1.370
  508DOPC   GL1 6081   7.946   0.181   1.731
  508DOPC   GL2 6082   7.703   0.213   1.911
  508DOPC   C1A 6083   8.251   0.097   2.054
  508DOPC   D2A 6084   8.356   0.112   2.545
  508DOPC   C3A 6085   8.106   0.110   2.957
  508DOPC   C4A 6086   7.786   0.002   3.319
  508DOPC   C1B 6087   7.857   0.288   2.336
  508DOPC   D2B 6088   8.138   0.552   2.684
  508DOPC   C3B 6089   8.237   0.608   3.148
  508DOPC   C4B 6090   8.237   0.705   3.647
  509DOPC   NC3 6091   5.889   8.004   0.911
  509DOPC   PO4 6092   5.974   8.319   1.148
  509DOPC   GL1 6093   5.687   8.424   1.478
  509DOPC   GL2 6094   5.902   8.654   1.537
  509DOPC   C1A 6095   5.575   8.255   1.884
  509DOPC   D2A 6096   5.720   8.275   2.371
  509DOPC   C3A 6097   5.691   8.127   2.823
  509DOPC   C4A 6098   5.743   7.878   3.243
  509DOPC   C1B 6099   6.086   8.436   1.888
  509DOPC   D2B 6100   6.225   8.095   2.234
  509DOPC   C3B 6101   6.178   8.196   2.691
  509DOPC   C4B 6102   6.085   8.280   3.174
  510DOPC   NC3 6103   5.891   3.618   1.032
  510DOPC   PO4 6104   6.149   3.430   1.272
  510DOPC   GL1 6105   5.890   3.488   1.617
  510DOPC   GL2 6106   5.944   3.788   1.603
  510DOPC   C1A 6107   6.008   3.361   2.038
  510DOPC   D2A 6108   6.157   3.267   2.518
  510DOPC   C3A 6109   6.000   3.217   2.970
  510DOPC   C4A 6110   5.820   3.235   3.436
  510DOPC   C1B 6111   5.801   3.840   2.022
  510DOPC   D2B 6112   5.848   3.707   2.521
  510DOPC   C3B 6113   5.731   3.658   2.990
  510DOPC   C4B 6114   5.781   3.780   3.486
  511DOPC   NC3 6115   7.643   4.679   1.073
  511DOPC   PO4 6116   7.376   4.981   1.070
  511DOPC   GL1 6117   7.183   5.110   1.406
  511DOPC   GL2 6118   6.915   4.982   1.408
  511DOPC   C1A 6119   7.313   5.177   1.812
  511DOPC   D2A 6120   7.335   5.318   2.293
  511DOPC   C3A 6121   7.395   5.091   2.701
  511DOPC   C4A 6122   7.535   4.918   3.145
  511DOPC   C1B 6123   6.773   4.873   1.806
  511DOPC   D2B 6124   6.835   4.705   2.280
  511DOPC   C3B 6125   7.005   4.730   2.721
  511DOPC   C4B 6126   6.991   5.101   3.054
  512DOPC   NC3 6127  15.023   2.989   0.930
  512DOPC   PO4 6128  15.254   2.916   1.257
  512DOPC   GL1 6129  15.028   2.743   1.553
  512DOPC   GL2 6130  15.181   2.517   1.656
  512DOPC   C1A 6131  14.904   2.920   1.937
  512DOPC   D2A 6132  14.938   2.972   2.439
  512DOPC   C3A 6133  14.900   3.147   2.876
  512DOPC   C4A 6134  15.098   3.314   3.302
  512DOPC   C1B 6135  15.038   2.471   2.104
  512DOPC   D2B 6136  14.926   2.494   2.605
  512DOPC   C3B 6137  15.172   2.711   2.939
  512DOPC   C4B 6138  15.447   2.930   3.280
  513DOPC   NC3 6139   1.059   8.177   1.157
  513DOPC   PO4 6140   1.351   8.409   1.020
  513DOPC   GL1 6141   1.595   8.470   1.385
  513DOPC   GL2 6142   1.429   8.196   1.457
  513DOPC   C1A 6143   1.557   8.466   1.828
  513DOPC   D2A 6144   1.405   8.487   2.297
  513DOPC   C3A 6145   1.546   8.517   2.742
  513DOPC   C4A 6146   1.691   8.542   3.209
  513DOPC   C1B 6147   1.281   8.047   1.876
  513DOPC   D2B 6148   1.184   7.994   2.377
  513DOPC   C3B 6149   1.349   8.030   2.824
  513DOPC   C4B 6150   1.472   8.086   3.313
  514DOPC   NC3 6151   1.763   8.706   0.957
  514DOPC   PO4 6152   1.488   8.893   1.165
  514DOPC   GL1 6153   1.743   9.000   1.477
  514DOPC   GL2 6154   1.978   8.810   1.389
  514DOPC   C1A 6155   1.738   8.922   1.911
  514DOPC   D2A 6156   1.784   8.851   2.400
  514DOPC   C3A 6157   1.765   9.004   2.835
  514DOPC   C4A 6158   1.721   9.326   3.213
  514DOPC   C1B 6159   2.216   8.835   1.774
  514DOPC   D2B 6160   2.299   8.821   2.289
  514DOPC   C3B 6161   2.259   8.906   2.769
  514DOPC   C4B 6162   2.062   8.924   3.240
  515DOPC   NC3 6163  17.433   4.939   1.133
  515DOPC   PO4 6164  17.069   5.047   1.251
  515DOPC   GL1 6165  17.105   5.115   1.679
  515DOPC   GL2 6166  17.420   5.049   1.626
  515DOPC   C1A 6167  17.089   5.102   2.140
  515DOPC   D2A 6168  17.063   5.210   2.645
  515DOPC   C3A 6169  16.980   5.042   3.085
  515DOPC   C4A 6170  17.048   4.703   3.455
  515DOPC   C1B 6171  17.637   5.000   2.031
  515DOPC   D2B 6172  17.910   4.885   2.455
  515DOPC   C3B 6173  17.744   4.895   2.896
  515DOPC   C4B 6174  17.461   5.025   3.287
  516DOPC   NC3 6175  15.702   5.030   1.044
  516DOPC   PO4 6176  15.462   4.900   1.337
  516DOPC   GL1 6177  15.331   5.133   1.683
  516DOPC   GL2 6178  15.040   5.073   1.610
  516DOPC   C1A 6179  15.328   5.078   2.131
  516DOPC   D2A 6180  15.320   5.128   2.629
  516DOPC   C3A 6181  15.363   5.149   3.099
  516DOPC   C4A 6182  15.325   5.170   3.598
  516DOPC   C1B 6183  14.871   4.887   1.980
  516DOPC   D2B 6184  14.797   4.843   2.475
  516DOPC   C3B 6185  14.855   5.006   2.903
  516DOPC   C4B 6186  14.866   5.193   3.353
  517DOPC   NC3 6187   8.977   0.579   1.122
  517DOPC   PO4 6188   8.684   0.863   1.130
  517DOPC   GL1 6189   8.562   1.021   1.504
  517DOPC   GL2 6190   8.640   1.305   1.435
  517DOPC   C1A 6191   8.617   0.912   1.946
  517DOPC   D2A 6192   8.727   0.969   2.444
  517DOPC   C3A 6193   8.663   0.939   2.924
  517DOPC   C4A 6194   8.637   0.961   3.423
  517DOPC   C1B 6195   8.854   1.338   1.824
  517DOPC   D2B 6196   8.872   1.452   2.312
  517DOPC   C3B 6197   8.954   1.344   2.755
  517DOPC   C4B 6198   9.060   1.158   3.211
  518DOPC   NC3 6199  15.112   5.712   1.134
  518DOPC   PO4 6200  14.761   5.902   1.205
  518DOPC   GL1 6201  14.621   5.654   1.536
  518DOPC   GL2 6202  14.892   5.496   1.533
  518DOPC   C1A 6203  14.549   5.687   1.985
  518DOPC   D2A 6204  14.466   5.686   2.480
  518DOPC   C3A 6205  14.508   5.646   2.953
  518DOPC   C4A 6206  14.566   5.590   3.452
  518DOPC   C1B 6207  14.970   5.401   1.972
  518DOPC   D2B 6208  14.910   5.378   2.485
  518DOPC   C3B 6209  14.996   5.491   2.946
  518DOPC   C4B 6210  15.142   5.613   3.418
  519DOPC   NC3 6211  13.744   4.299   1.198
  519DOPC   PO4 6212  13.926   3.951   1.267
  519DOPC   GL1 6213  13.856   4.000   1.700
  519DOPC   GL2 6214  13.725   4.258   1.659
  519DOPC   C1A 6215  13.809   3.924   2.142
  519DOPC   D2A 6216  13.688   3.838   2.629
  519DOPC   C3A 6217  13.876   4.015   3.027
  519DOPC   C4A 6218  13.764   4.364   3.357
  519DOPC   C1B 6219  13.480   4.295   2.007
  519DOPC   D2B 6220  13.312   4.402   2.458
  519DOPC   C3B 6221  13.502   4.325   2.870
  519DOPC   C4B 6222  13.392   4.002   3.224
  520DOPC   NC3 6223   8.440   6.650   0.991
  520DOPC   PO4 6224   8.240   6.441   1.271
  520DOPC   GL1 6225   8.082   6.596   1.592
  520DOPC   GL2 6226   7.810   6.649   1.647
  520DOPC   C1A 6227   8.121   6.416   1.968
  520DOPC   D2A 6228   8.138   6.218   2.406
  520DOPC   C3A 6229   8.192   6.420   2.826
  520DOPC   C4A 6230   8.221   6.696   3.229
  520DOPC   C1B 6231   7.648   6.524   2.066
  520DOPC   D2B 6232   7.492   6.265   2.483
  520DOPC   C3B 6233   7.630   6.333   2.930
  520DOPC   C4B 6234   7.731   6.549   3.372
  521DOPC   NC3 6235  11.487   4.343   1.276
  521DOPC   PO4 6236  11.535   3.952   1.205
  521DOPC   GL1 6237  11.369   3.723   1.529
  521DOPC   GL2 6238  11.082   3.833   1.412
  521DOPC   C1A 6239  11.353   3.794   1.965
  521DOPC   D2A 6240  11.376   3.839   2.456
  521DOPC   C3A 6241  11.310   3.915   2.902
  521DOPC   C4A 6242  11.453   4.261   3.220
  521DOPC   C1B 6243  10.937   4.043   1.784
  521DOPC   D2B 6244  10.911   4.018   2.293
  521DOPC   C3B 6245  11.067   4.311   2.646
  521DOPC   C4B 6246  11.165   4.636   3.017
  522DOPC   NC3 6247  11.141   5.782   0.933
  522DOPC   PO4 6248  11.220   6.045   1.225
  522DOPC   GL1 6249  11.386   5.917   1.541
  522DOPC   GL2 6250  11.671   5.941   1.438
  522DOPC   C1A 6251  11.343   6.096   1.941
  522DOPC   D2A 6252  11.347   6.287   2.385
  522DOPC   C3A 6253  11.370   5.950   2.724
  522DOPC   C4A 6254  11.356   5.586   3.058
  522DOPC   C1B 6255  11.823   5.952   1.844
  522DOPC   D2B 6256  11.751   5.982   2.336
  522DOPC   C3B 6257  11.757   6.267   2.721
  522DOPC   C4B 6258  11.548   6.413   3.149
  523DOPC   NC3 6259   7.233   1.057   1.349
  523DOPC   PO4 6260   7.048   1.351   1.151
  523DOPC   GL1 6261   7.020   1.427   1.580
  523DOPC   GL2 6262   7.323   1.497   1.553
  523DOPC   C1A 6263   6.977   1.577   1.993
  523DOPC   D2A 6264   6.934   1.694   2.470
  523DOPC   C3A 6265   6.994   1.510   2.898
  523DOPC   C4A 6266   6.978   1.485   3.397
  523DOPC   C1B 6267   7.422   1.344   1.967
  523DOPC   D2B 6268   7.274   1.301   2.456
  523DOPC   C3B 6269   7.424   1.149   2.871
  523DOPC   C4B 6270   7.749   0.913   3.166
  524DOPC   NC3 6271  19.457   6.340   1.214
  524DOPC   PO4 6272  19.757   6.603   1.220
  524DOPC   GL1 6273  19.785   6.627   1.635
  524DOPC   GL2 6274  19.666   6.350   1.705
  524DOPC   C1A 6275   0.008   6.649   1.995
  524DOPC   D2A 6276   0.257   6.694   2.434
  524DOPC   C3A 6277   0.099   6.750   2.875
  524DOPC   C4A 6278  19.714   6.765   3.198
  524DOPC   C1B 6279  19.629   6.368   2.180
  524DOPC   D2B 6280  19.696   6.463   2.683
  524DOPC   C3B 6281  19.430   6.346   3.056
  524DOPC   C4B 6282  19.150   6.244   3.451
  525DOPC   NC3 6283  15.309   1.168   1.197
  525DOPC   PO4 6284  15.220   1.510   1.005
  525DOPC   GL1 6285  15.334   1.600   1.440
  525DOPC   GL2 6286  15.114   1.450   1.539
  525DOPC   C1A 6287  15.500   1.758   1.822
  525DOPC   D2A 6288  15.650   1.812   2.329
  525DOPC   C3A 6289  15.500   1.768   2.795
  525DOPC   C4A 6290  15.369   1.706   3.283
  525DOPC   C1B 6291  15.097   1.491   1.987
  525DOPC   D2B 6292  15.108   1.679   2.463
  525DOPC   C3B 6293  15.026   1.546   2.923
  525DOPC   C4B 6294  14.972   1.391   3.409
  526DOPC   NC3 6295   8.279   1.169   1.128
  526DOPC   PO4 6296   8.315   1.572   1.112
  526DOPC   GL1 6297   8.283   1.813   1.451
  526DOPC   GL2 6298   7.995   1.753   1.535
  526DOPC   C1A 6299   8.431   1.605   1.803
  526DOPC   D2A 6300   8.369   1.334   2.217
  526DOPC   C3A 6301   8.437   1.359   2.679
  526DOPC   C4A 6302   8.628   1.444   3.129
  526DOPC   C1B 6303   7.936   1.483   1.905
  526DOPC   D2B 6304   7.772   1.323   2.357
  526DOPC   C3B 6305   7.924   1.295   2.806
  526DOPC   C4B 6306   8.229   1.131   3.160
  527DOPC   NC3 6307  19.649   7.425   1.082
  527DOPC   PO4 6308  19.631   7.105   1.307
  527DOPC   GL1 6309  19.441   7.452   1.525
  527DOPC   GL2 6310  19.722   7.446   1.613
  527DOPC   C1A 6311  19.339   7.455   1.939
  527DOPC   D2A 6312  19.575   7.354   2.369
  527DOPC   C3A 6313  19.528   7.543   2.792
  527DOPC   C4A 6314  19.346   7.711   3.221
  527DOPC   C1B 6315  19.752   7.129   1.937
  527DOPC   D2B 6316  19.731   6.851   2.355
  527DOPC   C3B 6317  19.697   7.056   2.783
  527DOPC   C4B 6318  19.740   7.316   3.218
  528DOPC   NC3 6319   7.390   8.918   1.198
  528DOPC   PO4 6320   7.232   9.295   1.237
  528DOPC   GL1 6321   7.367   9.448   1.637
  528DOPC   GL2 6322   7.181   9.188   1.698
  528DOPC   C1A 6323   7.489   9.441   2.066
  528DOPC   D2A 6324   7.582   9.389   2.563
  528DOPC   C3A 6325   7.366   9.326   2.989
  528DOPC   C4A 6326   7.140   9.297   3.441
  528DOPC   C1B 6327   7.105   9.082   2.129
  528DOPC   D2B 6328   7.131   9.054   2.633
  528DOPC   C3B 6329   6.939   8.991   3.068
  528DOPC   C4B 6330   6.956   8.818   3.545
  529DOPC   NC3 6331  16.904   7.455   1.132
  529DOPC   PO4 6332  16.798   7.782   1.333
  529DOPC   GL1 6333  17.121   7.747   1.629
  529DOPC   GL2 6334  17.231   7.535   1.449
  529DOPC   C1A 6335  17.274   7.712   2.072
  529DOPC   D2A 6336  17.440   7.723   2.549
  529DOPC   C3A 6337  17.509   7.669   3.013
  529DOPC   C4A 6338  17.497   7.566   3.503
  529DOPC   C1B 6339  17.520   7.448   1.743
  529DOPC   D2B 6340  17.663   7.383   2.224
  529DOPC   C3B 6341  17.738   7.330   2.687
  529DOPC   C4B 6342  17.656   7.190   3.156
  530DOPC   NC3 6343   2.127   0.476   0.869
  530DOPC   PO4 6344   1.960   0.118   0.973
  530DOPC   GL1 6345   1.825   0.132   1.380
  530DOPC   GL2 6346   1.839   0.441   1.392
  530DOPC   C1A 6347   1.927   0.166   1.803
  530DOPC   D2A 6348   1.763   0.216   2.260
  530DOPC   C3A 6349   1.885   0.216   2.703
  530DOPC   C4A 6350   1.920   0.331   3.177
  530DOPC   C1B 6351   1.655   0.623   1.790
  530DOPC   D2B 6352   1.581   0.706   2.300
  530DOPC   C3B 6353   1.783   0.713   2.739
  530DOPC   C4B 6354   2.115   0.808   3.099
  531DOPC   NC3 6355  15.181   4.485   1.310
  531DOPC   PO4 6356  15.541   4.365   1.162
  531DOPC   GL1 6357  15.639   4.435   1.580
  531DOPC   GL2 6358  15.403   4.233   1.646
  531DOPC   C1A 6359  15.510   4.617   1.957
  531DOPC   D2A 6360  15.276   4.638   2.392
  531DOPC   C3A 6361  15.232   4.673   2.847
  531DOPC   C4A 6362  15.120   4.747   3.311
  531DOPC   C1B 6363  15.093   4.331   1.983
  531DOPC   D2B 6364  14.803   4.337   2.409
  531DOPC   C3B 6365  14.804   4.394   2.887
  531DOPC   C4B 6366  14.815   4.334   3.379
  532DOPC   NC3 6367   1.917   7.545   1.171
  532DOPC   PO4 6368   2.125   7.873   1.087
  532DOPC   GL1 6369   2.249   7.963   1.507
  532DOPC   GL2 6370   2.138   7.689   1.601
  532DOPC   C1A 6371   2.288   8.055   1.934
  532DOPC   D2A 6372   2.221   8.024   2.421
  532DOPC   C3A 6373   2.124   7.728   2.773
  532DOPC   C4A 6374   2.123   7.558   3.234
  532DOPC   C1B 6375   2.134   7.579   2.069
  532DOPC   D2B 6376   2.282   7.322   2.499
  532DOPC   C3B 6377   2.102   7.160   2.918
  532DOPC   C4B 6378   1.914   7.112   3.391
  533DOPC   NC3 6379   1.587   3.565   1.095
  533DOPC   PO4 6380   1.384   3.276   1.292
  533DOPC   GL1 6381   1.522   3.349   1.676
  533DOPC   GL2 6382   1.569   3.657   1.555
  533DOPC   C1A 6383   1.584   3.321   2.140
  533DOPC   D2A 6384   1.770   3.581   2.550
  533DOPC   C3A 6385   1.894   3.680   3.003
  533DOPC   C4A 6386   2.074   3.682   3.471
  533DOPC   C1B 6387   1.405   3.733   1.944
  533DOPC   D2B 6388   1.277   3.648   2.422
  533DOPC   C3B 6389   1.397   3.715   2.878
  533DOPC   C4B 6390   1.525   3.863   3.343
  534DOPC   NC3 6391  19.330   6.830   1.034
  534DOPC   PO4 6392  19.110   7.090   1.257
  534DOPC   GL1 6393  19.321   7.036   1.655
  534DOPC   GL2 6394  19.388   6.754   1.506
  534DOPC   C1A 6395  19.287   6.967   2.108
  534DOPC   D2A 6396  19.292   6.801   2.587
  534DOPC   C3A 6397  19.231   6.826   3.054
  534DOPC   C4A 6398  19.228   6.749   3.549
  534DOPC   C1B 6399  19.256   6.525   1.848
  534DOPC   D2B 6400  18.992   6.515   2.277
  534DOPC   C3B 6401  18.895   6.540   2.747
  534DOPC   C4B 6402  18.813   6.557   3.232
  535DOPC   NC3 6403  19.525   8.522   0.983
  535DOPC   PO4 6404  19.489   8.778   1.275
  535DOPC   GL1 6405  19.498   8.423   1.505
  535DOPC   GL2 6406  19.738   8.302   1.378
  535DOPC   C1A 6407  19.590   8.432   1.936
  535DOPC   D2A 6408  19.632   8.433   2.428
  535DOPC   C3A 6409  19.491   8.734   2.763
  535DOPC   C4A 6410  19.222   8.906   3.146
  535DOPC   C1B 6411   0.041   8.407   1.703
  535DOPC   D2B 6412   0.080   8.642   2.155
  535DOPC   C3B 6413   0.050   8.654   2.630
  535DOPC   C4B 6414   0.051   8.708   3.124
  536DOPC   NC3 6415  11.318   6.488   1.035
  536DOPC   PO4 6416  11.647   6.411   1.252
  536DOPC   GL1 6417  11.593   6.322   1.641
  536DOPC   GL2 6418  11.280   6.378   1.595
  536DOPC   C1A 6419  11.719   6.429   2.058
  536DOPC   D2A 6420  11.643   6.697   2.481
  536DOPC   C3A 6421  11.262   6.605   2.755
  536DOPC   C4A 6422  11.011   6.442   3.141
  536DOPC   C1B 6423  11.277   6.663   1.955
  536DOPC   D2B 6424  11.416   7.089   2.212
  536DOPC   C3B 6425  11.383   7.092   2.681
  536DOPC   C4B 6426  11.416   6.913   3.134
  537DOPC   NC3 6427  19.601   0.439   1.024
  537DOPC   PO4 6428  19.336   0.746   1.046
  537DOPC   GL1 6429  19.226   0.776   1.471
  537DOPC   GL2 6430  19.518   0.727   1.546
  537DOPC   C1A 6431  19.087   0.621   1.868
  537DOPC   D2A 6432  19.045   0.574   2.377
  537DOPC   C3A 6433  19.214   0.603   2.839
  537DOPC   C4A 6434  19.497   0.714   3.253
  537DOPC   C1B 6435  19.599   0.553   1.960
  537DOPC   D2B 6436  19.546   0.488   2.466
  537DOPC   C3B 6437  19.702   0.397   2.907
  537DOPC   C4B 6438  19.688   0.278   3.398
  538DOPC   NC3 6439   1.436   9.366   1.277
  538DOPC   PO4 6440   1.610   9.656   1.493
  538DOPC   GL1 6441   1.705   9.366   1.805
  538DOPC   GL2 6442   1.440   9.233   1.722
  538DOPC   C1A 6443   1.609   9.332   2.247
  538DOPC   D2A 6444   1.473   9.402   2.740
  538DOPC   C3A 6445   1.299   9.708   3.058
  538DOPC   C4A 6446   1.000   0.084   3.206
  538DOPC   C1B 6447   1.147   9.442   1.972
  538DOPC   D2B 6448   0.931   9.738   2.316
  538DOPC   C3B 6449   0.887   9.717   2.775
  538DOPC   C4B 6450   0.840   9.589   3.251
  539DOPC   NC3 6451   9.715   1.514   0.971
  539DOPC   PO4 6452   9.505   1.688   1.265
  539DOPC   GL1 6453   9.633   1.671   1.687
  539DOPC   GL2 6454   9.382   1.828   1.749
  539DOPC   C1A 6455   9.819   1.571   2.079
  539DOPC   D2A 6456   9.884   1.459   2.561
  539DOPC   C3A 6457   9.724   1.754   2.898
  539DOPC   C4A 6458   9.545   1.867   3.347
  539DOPC   C1B 6459   9.439   1.965   2.175
  539DOPC   D2B 6460   9.378   2.239   2.612
  539DOPC   C3B 6461   9.468   2.301   3.073
  539DOPC   C4B 6462   9.587   2.339   3.556
  540DOPC   NC3 6463   8.144   3.303   1.200
  540DOPC   PO4 6464   7.778   3.293   1.357
  540DOPC   GL1 6465   7.935   3.377   1.744
  540DOPC   GL2 6466   8.066   3.633   1.612
  540DOPC   C1A 6467   7.980   3.324   2.194
  540DOPC   D2A 6468   7.909   3.295   2.700
  540DOPC   C3A 6469   7.624   3.391   3.069
  540DOPC   C4A 6470   7.545   3.411   3.560
  540DOPC   C1B 6471   8.161   3.773   2.016
  540DOPC   D2B 6472   7.943   3.798   2.458
  540DOPC   C3B 6473   7.969   3.762   2.916
  540DOPC   C4B 6474   7.985   3.604   3.386
  541DOPC   NC3 6475   9.791   7.186   1.031
  541DOPC   PO4 6476   9.565   7.515   0.988
  541DOPC   GL1 6477   9.640   7.641   1.389
  541DOPC   GL2 6478   9.767   7.362   1.470
  541DOPC   C1A 6479   9.561   7.714   1.823
  541DOPC   D2A 6480   9.656   7.684   2.324
  541DOPC   C3A 6481   9.448   7.667   2.763
  541DOPC   C4A 6482   9.284   7.595   3.240
  541DOPC   C1B 6483   9.903   7.329   1.915
  541DOPC   D2B 6484  10.097   7.353   2.389
  541DOPC   C3B 6485  10.188   7.517   2.832
  541DOPC   C4B 6486  10.178   7.490   3.336
  542DOPC   NC3 6487   7.403   4.203   1.043
  542DOPC   PO4 6488   7.801   4.197   1.060
  542DOPC   GL1 6489   7.664   4.330   1.450
  542DOPC   GL2 6490   7.474   4.080   1.479
  542DOPC   C1A 6491   7.562   4.511   1.850
  542DOPC   D2A 6492   7.351   4.779   2.230
  542DOPC   C3A 6493   7.479   4.567   2.636
  542DOPC   C4A 6494   7.381   4.416   3.101
  542DOPC   C1B 6495   7.284   4.039   1.877
  542DOPC   D2B 6496   7.122   4.280   2.282
  542DOPC   C3B 6497   7.083   4.209   2.734
  542DOPC   C4B 6498   6.954   4.111   3.201
  543DOPC   NC3 6499   2.521   4.500   1.177
  543DOPC   PO4 6500   2.736   4.841   1.201
  543DOPC   GL1 6501   2.950   4.781   1.606
  543DOPC   GL2 6502   2.903   4.494   1.512
  543DOPC   C1A 6503   2.849   4.750   2.058
  543DOPC   D2A 6504   2.758   4.699   2.559
  543DOPC   C3A 6505   3.011   4.738   2.973
  543DOPC   C4A 6506   3.161   4.684   3.453
  543DOPC   C1B 6507   2.635   4.351   1.844
  543DOPC   D2B 6508   2.500   4.252   2.332
  543DOPC   C3B 6509   2.527   4.283   2.811
  543DOPC   C4B 6510   2.713   4.429   3.253
  544DOPC   NC3 6511   0.200   7.828   1.146
  544DOPC   PO4 6512  19.833   7.832   1.311
  544DOPC   GL1 6513   0.051   7.723   1.636
  544DOPC   GL2 6514   0.227   7.962   1.626
  544DOPC   C1A 6515  19.941   7.608   2.042
  544DOPC   D2A 6516  19.982   7.660   2.539
  544DOPC   C3A 6517   0.319   7.808   2.848
  544DOPC   C4A 6518   0.478   8.031   3.261
  544DOPC   C1B 6519   0.434   7.967   2.021
  544DOPC   D2B 6520   0.662   7.893   2.474
  544DOPC   C3B 6521   0.845   8.082   2.866
  544DOPC   C4B 6522   1.141   8.419   3.099
  545DOPC   NC3 6523   6.033   2.185   0.810
  545DOPC   PO4 6524   6.264   1.936   1.031
  545DOPC   GL1 6525   6.079   2.093   1.386
  545DOPC   GL2 6526   6.036   1.810   1.512
  545DOPC   C1A 6527   6.017   2.315   1.765
  545DOPC   D2A 6528   6.080   2.261   2.247
  545DOPC   C3A 6529   6.133   2.352   2.687
  545DOPC   C4A 6530   5.969   2.345   3.138
  545DOPC   C1B 6531   5.806   1.846   1.919
  545DOPC   D2B 6532   5.638   2.034   2.362
  545DOPC   C3B 6533   5.688   2.022   2.838
  545DOPC   C4B 6534   5.530   1.870   3.295
  546DOPC   NC3 6535  15.936   4.665   1.292
  546DOPC   PO4 6536  16.221   4.944   1.242
  546DOPC   GL1 6537  16.165   5.184   1.578
  546DOPC   GL2 6538  15.858   5.150   1.482
  546DOPC   C1A 6539  16.238   5.037   2.010
  546DOPC   D2A 6540  16.237   5.021   2.521
  546DOPC   C3A 6541  16.116   5.094   2.978
  546DOPC   C4A 6542  15.811   5.295   3.332
  546DOPC   C1B 6543  15.761   5.044   1.883
  546DOPC   D2B 6544  15.764   4.887   2.352
  546DOPC   C3B 6545  15.707   4.849   2.815
  546DOPC   C4B 6546  15.697   4.780   3.304
  547DOPC   NC3 6547   1.137   1.269   1.092
  547DOPC   PO4 6548   1.469   1.146   1.293
  547DOPC   GL1 6549   1.317   0.993   1.644
  547DOPC   GL2 6550   1.055   1.164   1.591
  547DOPC   C1A 6551   1.316   1.077   2.069
  547DOPC   D2A 6552   1.118   1.070   2.531
  547DOPC   C3A 6553   1.296   1.029   2.970
  547DOPC   C4A 6554   1.611   0.752   3.247
  547DOPC   C1B 6555   0.817   1.199   1.978
  547DOPC   D2B 6556   0.684   1.334   2.456
  547DOPC   C3B 6557   0.827   1.280   2.914
  547DOPC   C4B 6558   1.032   1.283   3.372
  548DOPC   NC3 6559   6.590   8.964   1.155
  548DOPC   PO4 6560   6.343   9.274   1.222
  548DOPC   GL1 6561   6.578   9.453   1.544
  548DOPC   GL2 6562   6.806   9.249   1.456
  548DOPC   C1A 6563   6.546   9.303   1.969
  548DOPC   D2A 6564   6.674   9.113   2.419
  548DOPC   C3A 6565   6.488   9.157   2.846
  548DOPC   C4A 6566   6.163   9.294   3.191
  548DOPC   C1B 6567   6.760   8.906   1.751
  548DOPC   D2B 6568   6.454   8.741   2.129
  548DOPC   C3B 6569   6.369   8.711   2.595
  548DOPC   C4B 6570   6.240   8.756   3.069
  549DOPC   NC3 6571  12.278   7.608   1.074
  549DOPC   PO4 6572  12.204   7.934   1.301
  549DOPC   GL1 6573  12.373   7.781   1.646
  549DOPC   GL2 6574  12.293   7.497   1.538
  549DOPC   C1A 6575  12.269   7.762   2.075
  549DOPC   D2A 6576  12.105   7.561   2.511
  549DOPC   C3A 6577  12.169   7.472   2.967
  549DOPC   C4A 6578  12.288   7.371   3.439
  549DOPC   C1B 6579  12.108   7.282   1.876
  549DOPC   D2B 6580  11.927   7.099   2.313
  549DOPC   C3B 6581  11.883   7.077   2.786
  549DOPC   C4B 6582  11.878   7.086   3.286
  550DOPC   NC3 6583   7.886   5.177   1.052
  550DOPC   PO4 6584   7.791   5.560   1.167
  550DOPC   GL1 6585   7.575   5.465   1.536
  550DOPC   GL2 6586   7.625   5.163   1.455
  550DOPC   C1A 6587   7.707   5.480   1.976
  550DOPC   D2A 6588   7.817   5.255   2.425
  550DOPC   C3A 6589   7.818   5.311   2.898
  550DOPC   C4A 6590   7.814   5.309   3.399
  550DOPC   C1B 6591   7.780   4.973   1.844
  550DOPC   D2B 6592   7.851   4.755   2.298
  550DOPC   C3B 6593   7.920   4.824   2.755
  550DOPC   C4B 6594   8.073   4.894   3.221
  551DOPC   NC3 6595   2.255   9.949   1.351
  551DOPC   PO4 6596   2.310   0.349   1.305
  551DOPC   GL1 6597   2.203   0.702   1.537
  551DOPC   GL2 6598   2.520   0.715   1.584
  551DOPC   C1A 6599   2.129   0.651   1.964
  551DOPC   D2A 6600   2.244   0.374   2.360
  551DOPC   C3A 6601   2.334   0.456   2.808
  551DOPC   C4A 6602   2.548   0.560   3.247
  551DOPC   C1B 6603   2.608   0.445   1.961
  551DOPC   D2B 6604   2.747   0.225   2.410
  551DOPC   C3B 6605   2.840   0.442   2.825
  551DOPC   C4B 6606   3.014   0.779   3.161
  552DOPC   NC3 6607   1.871   6.563   1.162
  552DOPC   PO4 6608   1.531   6.683   1.339
  552DOPC   GL1 6609   1.461   6.382   1.629
  552DOPC   GL2 6610   1.754   6.363   1.695
  552DOPC   C1A 6611   1.355   6.467   2.039
  552DOPC   D2A 6612   1.229   6.609   2.507
  552DOPC   C3A 6613   1.546   6.680   2.858
  552DOPC   C4A 6614   1.819   6.629   3.270
  552DOPC   C1B 6615   1.853   6.564   2.091
  552DOPC   D2B 6616   1.970   6.850   2.497
  552DOPC   C3B 6617   2.136   6.631   2.874
  552DOPC   C4B 6618   2.249   6.329   3.259
  553DOPC   NC3 6619  18.764   4.191   1.114
  553DOPC   PO4 6620  19.112   4.357   1.233
  553DOPC   GL1 6621  18.978   4.313   1.604
  553DOPC   GL2 6622  18.825   4.047   1.569
  553DOPC   C1A 6623  19.015   4.518   2.002
  553DOPC   D2A 6624  19.018   4.782   2.435
  553DOPC   C3A 6625  19.219   4.492   2.758
  553DOPC   C4A 6626  19.358   4.064   3.005
  553DOPC   C1B 6627  18.815   4.026   2.000
  553DOPC   D2B 6628  18.829   4.278   2.438
  553DOPC   C3B 6629  18.867   4.139   2.885
  553DOPC   C4B 6630  18.733   4.194   3.358
  554DOPC   NC3 6631  11.908   3.905   0.886
  554DOPC   PO4 6632  12.255   3.947   1.085
  554DOPC   GL1 6633  11.953   3.751   1.352
  554DOPC   GL2 6634  12.126   3.511   1.342
  554DOPC   C1A 6635  11.823   3.813   1.779
  554DOPC   D2A 6636  11.873   3.788   2.289
  554DOPC   C3A 6637  11.805   3.842   2.768
  554DOPC   C4A 6638  11.674   3.781   3.252
  554DOPC   C1B 6639  12.160   3.429   1.772
  554DOPC   D2B 6640  12.090   3.309   2.255
  554DOPC   C3B 6641  12.069   3.406   2.712
  554DOPC   C4B 6642  12.050   3.407   3.205
  555DOPC   NC3 6643  19.053   1.190   1.303
  555DOPC   PO4 6644  18.959   1.525   1.497
  555DOPC   GL1 6645  19.111   1.381   1.855
  555DOPC   GL2 6646  19.233   1.131   1.731
  555DOPC   C1A 6647  19.140   1.387   2.305
  555DOPC   D2A 6648  18.998   1.433   2.787
  555DOPC   C3A 6649  18.826   1.480   3.223
  555DOPC   C4A 6650  18.686   1.650   3.668
  555DOPC   C1B 6651  19.370   0.981   2.102
  555DOPC   D2B 6652  19.417   0.989   2.574
  555DOPC   C3B 6653  19.283   1.090   3.005
  555DOPC   C4B 6654  19.089   0.975   3.441
  556DOPC   NC3 6655   1.776   8.179   0.926
  556DOPC   PO4 6656   1.535   7.897   1.089
  556DOPC   GL1 6657   1.754   7.883   1.496
  556DOPC   GL2 6658   1.867   8.126   1.375
  556DOPC   C1A 6659   1.780   7.980   1.950
  556DOPC   D2A 6660   1.710   8.088   2.452
  556DOPC   C3A 6661   1.840   8.112   2.925
  556DOPC   C4A 6662   1.977   8.059   3.407
  556DOPC   C1B 6663   2.023   8.386   1.663
  556DOPC   D2B 6664   1.973   8.441   2.159
  556DOPC   C3B 6665   2.066   8.463   2.629
  556DOPC   C4B 6666   2.208   8.449   3.120
  557DOPC   NC3 6667   1.960   1.867   0.975
  557DOPC   PO4 6668   2.201   2.028   1.254
  557DOPC   GL1 6669   1.915   2.086   1.549
  557DOPC   GL2 6670   1.791   1.816   1.438
  557DOPC   C1A 6671   1.972   1.962   1.970
  557DOPC   D2A 6672   2.043   1.854   2.445
  557DOPC   C3A 6673   1.952   2.074   2.857
  557DOPC   C4A 6674   2.005   2.409   3.216
  557DOPC   C1B 6675   1.709   1.564   1.800
  557DOPC   D2B 6676   1.613   1.608   2.300
  557DOPC   C3B 6677   1.744   1.621   2.764
  557DOPC   C4B 6678   1.950   1.650   3.217
  558DOPC   NC3 6679   0.579   9.748   1.073
  558DOPC   PO4 6680   0.554   9.384   1.244
  558DOPC   GL1 6681   0.452   9.474   1.627
  558DOPC   GL2 6682   0.454   9.782   1.600
  558DOPC   C1A 6683   0.623   9.434   2.033
  558DOPC   D2A 6684   0.611   9.341   2.528
  558DOPC   C3A 6685   0.457   9.427   2.969
  558DOPC   C4A 6686   0.325   9.580   3.430
  558DOPC   C1B 6687   0.508   9.941   2.038
  558DOPC   D2B 6688   0.470   9.919   2.556
  558DOPC   C3B 6689   0.512   9.939   3.047
  558DOPC   C4B 6690   0.633   9.984   3.543
  559DOPC   NC3 6691  14.305   9.675   1.238
  559DOPC   PO4 6692  14.567   9.924   1.413
  559DOPC   GL1 6693  14.437   9.679   1.732
  559DOPC   GL2 6694  14.128   9.729   1.665
  559DOPC   C1A 6695  14.604   9.507   2.110
  559DOPC   D2A 6696  14.856   9.347   2.520
  559DOPC   C3A 6697  14.708   9.401   2.971
  559DOPC   C4A 6698  14.502   9.733   3.289
  559DOPC   C1B 6699  13.830   9.667   1.990
  559DOPC   D2B 6700  13.652   9.545   2.448
  559DOPC   C3B 6701  13.697   9.534   2.908
  559DOPC   C4B 6702  13.978   9.574   3.309
  560DOPC   NC3 6703  17.570   2.896   1.439
  560DOPC   PO4 6704  17.541   2.503   1.418
  560DOPC   GL1 6705  17.891   2.362   1.629
  560DOPC   GL2 6706  17.921   2.675   1.699
  560DOPC   C1A 6707  18.048   2.283   2.031
  560DOPC   D2A 6708  18.088   2.108   2.501
  560DOPC   C3A 6709  18.014   2.387   2.875
  560DOPC   C4A 6710  18.069   2.662   3.290
  560DOPC   C1B 6711  18.028   2.822   2.123
  560DOPC   D2B 6712  18.049   2.888   2.631
  560DOPC   C3B 6713  18.180   3.128   3.025
  560DOPC   C4B 6714  18.379   3.405   3.396
  561DOPC   NC3 6715   6.787   6.705   1.213
  561DOPC   PO4 6716   6.767   7.104   1.240
  561DOPC   GL1 6717   6.562   7.006   1.581
  561DOPC   GL2 6718   6.404   6.767   1.505
  561DOPC   C1A 6719   6.745   6.860   1.957
  561DOPC   D2A 6720   6.618   6.698   2.403
  561DOPC   C3A 6721   6.781   6.826   2.821
  561DOPC   C4A 6722   6.891   7.097   3.221
  561DOPC   C1B 6723   6.293   6.593   1.915
  561DOPC   D2B 6724   6.192   6.428   2.390
  561DOPC   C3B 6725   6.318   6.569   2.832
  561DOPC   C4B 6726   6.483   6.653   3.291
  562DOPC   NC3 6727  13.555   1.950   1.150
  562DOPC   PO4 6728  13.330   1.623   1.240
  562DOPC   GL1 6729  13.607   1.746   1.580
  562DOPC   GL2 6730  13.444   2.007   1.609
  562DOPC   C1A 6731  13.621   1.611   2.008
  562DOPC   D2A 6732  13.581   1.576   2.513
  562DOPC   C3A 6733  13.599   1.734   2.952
  562DOPC   C4A 6734  13.616   1.846   3.444
  562DOPC   C1B 6735  13.492   2.107   2.048
  562DOPC   D2B 6736  13.541   2.110   2.566
  562DOPC   C3B 6737  13.307   2.136   3.003
  562DOPC   C4B 6738  13.139   2.039   3.470
  563DOPC   NC3 6739   5.334   9.105   1.173
  563DOPC   PO4 6740   5.019   8.880   1.257
  563DOPC   GL1 6741   4.859   8.793   1.615
  563DOPC   GL2 6742   4.732   8.527   1.584
  563DOPC   C1A 6743   5.114   8.782   1.987
  563DOPC   D2A 6744   5.392   8.702   2.404
  563DOPC   C3A 6745   5.374   8.861   2.848
  563DOPC   C4A 6746   5.308   9.096   3.281
  563DOPC   C1B 6747   4.713   8.446   2.009
  563DOPC   D2B 6748   4.919   8.433   2.465
  563DOPC   C3B 6749   4.757   8.561   2.888
  563DOPC   C4B 6750   4.667   8.783   3.324
  564DOPC   NC3 6751  16.542   2.933   1.069
  564DOPC   PO4 6752  16.271   2.745   1.293
  564DOPC   GL1 6753  16.675   2.620   1.403
  564DOPC   GL2 6754  16.557   2.414   1.556
  564DOPC   C1A 6755  16.789   2.860   1.752
  564DOPC   D2A 6756  16.733   2.895   2.249
  564DOPC   C3A 6757  16.739   2.849   2.722
  564DOPC   C4A 6758  16.646   2.783   3.204
  564DOPC   C1B 6759  16.582   2.464   1.988
  564DOPC   D2B 6760  16.704   2.423   2.464
  564DOPC   C3B 6761  16.701   2.348   2.926
  564DOPC   C4B 6762  16.829   2.352   3.405
  565DOPC   NC3 6763  16.384   7.429   1.075
  565DOPC   PO4 6764  16.261   7.717   1.320
  565DOPC   GL1 6765  16.359   7.465   1.619
  565DOPC   GL2 6766  16.627   7.391   1.520
  565DOPC   C1A 6767  16.473   7.616   2.021
  565DOPC   D2A 6768  16.626   7.572   2.497
  565DOPC   C3A 6769  16.434   7.492   2.916
  565DOPC   C4A 6770  16.196   7.331   3.316
  565DOPC   C1B 6771  16.925   7.385   1.865
  565DOPC   D2B 6772  17.103   7.318   2.339
  565DOPC   C3B 6773  17.054   7.484   2.778
  565DOPC   C4B 6774  17.049   7.699   3.220
  566DOPC   NC3 6775   4.919   8.395   1.184
  566DOPC   PO4 6776   4.895   8.002   1.089
  566DOPC   GL1 6777   4.868   7.820   1.486
  566DOPC   GL2 6778   4.910   8.117   1.594
  566DOPC   C1A 6779   4.764   7.761   1.912
  566DOPC   D2A 6780   4.711   7.985   2.352
  566DOPC   C3A 6781   4.816   7.982   2.801
  566DOPC   C4A 6782   4.836   7.927   3.286
  566DOPC   C1B 6783   5.100   8.123   2.020
  566DOPC   D2B 6784   5.258   8.018   2.493
  566DOPC   C3B 6785   5.222   8.304   2.873
  566DOPC   C4B 6786   5.144   8.612   3.245
  567DOPC   NC3 6787  17.341   3.255   1.145
  567DOPC   PO4 6788  17.102   3.530   1.287
  567DOPC   GL1 6789  17.310   3.432   1.642
  567DOPC   GL2 6790  17.213   3.157   1.616
  567DOPC   C1A 6791  17.334   3.497   2.079
  567DOPC   D2A 6792  17.317   3.540   2.579
  567DOPC   C3A 6793  17.440   3.735   2.991
  567DOPC   C4A 6794  17.577   3.827   3.473
  567DOPC   C1B 6795  17.182   3.025   2.028
  567DOPC   D2B 6796  17.182   2.970   2.516
  567DOPC   C3B 6797  17.294   3.153   2.921
  567DOPC   C4B 6798  17.512   3.359   3.305
  568DOPC   NC3 6799   6.472   5.179   0.959
  568DOPC   PO4 6800   6.201   5.445   1.065
  568DOPC   GL1 6801   6.244   5.575   1.473
  568DOPC   GL2 6802   6.555   5.623   1.416
  568DOPC   C1A 6803   6.179   5.810   1.858
  568DOPC   D2A 6804   6.183   5.918   2.344
  568DOPC   C3A 6805   6.170   5.785   2.792
  568DOPC   C4A 6806   6.139   5.636   3.260
  568DOPC   C1B 6807   6.720   5.814   1.804
  568DOPC   D2B 6808   6.650   6.132   2.199
  568DOPC   C3B 6809   6.523   6.141   2.657
  568DOPC   C4B 6810   6.342   6.151   3.145
  569DOPC   NC3 6811   6.888   4.336   1.058
  569DOPC   PO4 6812   6.662   4.051   1.216
  569DOPC   GL1 6813   6.474   4.168   1.569
  569DOPC   GL2 6814   6.517   4.463   1.540
  569DOPC   C1A 6815   6.723   4.048   1.932
  569DOPC   D2A 6816   6.874   3.815   2.348
  569DOPC   C3A 6817   6.718   3.856   2.792
  569DOPC   C4A 6818   6.439   3.998   3.184
  569DOPC   C1B 6819   6.461   4.489   1.979
  569DOPC   D2B 6820   6.432   4.464   2.485
  569DOPC   C3B 6821   6.628   4.416   2.911
  569DOPC   C4B 6822   6.938   4.630   3.237
  570DOPC   NC3 6823   7.317   7.311   1.178
  570DOPC   PO4 6824   7.681   7.434   1.322
  570DOPC   GL1 6825   7.561   7.152   1.608
  570DOPC   GL2 6826   7.297   7.317   1.662
  570DOPC   C1A 6827   7.591   7.084   2.027
  570DOPC   D2A 6828   7.612   7.063   2.526
  570DOPC   C3A 6829   7.466   7.252   2.943
  570DOPC   C4A 6830   7.345   7.529   3.348
  570DOPC   C1B 6831   7.137   7.271   2.095
  570DOPC   D2B 6832   7.102   7.172   2.599
  570DOPC   C3B 6833   7.019   7.508   2.933
  570DOPC   C4B 6834   6.899   7.846   3.284
  571DOPC   NC3 6835  18.184   6.884   1.037
  571DOPC   PO4 6836  18.005   7.229   1.152
  571DOPC   GL1 6837  17.736   7.179   1.453
  571DOPC   GL2 6838  17.658   6.892   1.451
  571DOPC   C1A 6839  17.880   7.111   1.864
  571DOPC   D2A 6840  18.016   7.031   2.353
  571DOPC   C3A 6841  17.945   6.869   2.799
  571DOPC   C4A 6842  17.852   6.736   3.272
  571DOPC   C1B 6843  17.623   6.650   1.860
  571DOPC   D2B 6844  17.529   6.440   2.335
  571DOPC   C3B 6845  17.771   6.367   2.752
  571DOPC   C4B 6846  18.047   6.281   3.171
  572DOPC   NC3 6847  10.220   0.576   0.981
  572DOPC   PO4 6848  10.603   0.502   1.099
  572DOPC   GL1 6849  10.789   0.395   1.494
  572DOPC   GL2 6850  10.744   0.695   1.568
  572DOPC   C1A 6851  10.794   0.304   1.916
  572DOPC   D2A 6852  10.657   0.174   2.381
  572DOPC   C3A 6853  10.583   0.312   2.826
  572DOPC   C4A 6854  10.389   0.367   3.278
  572DOPC   C1B 6855  10.540   0.754   1.984
  572DOPC   D2B 6856  10.400   0.649   2.469
  572DOPC   C3B 6857  10.142   0.629   2.872
  572DOPC   C4B 6858   9.943   0.655   3.325
  573DOPC   NC3 6859   1.954   1.330   1.329
  573DOPC   PO4 6860   2.305   1.126   1.364
  573DOPC   GL1 6861   2.338   1.079   1.778
  573DOPC   GL2 6862   2.021   1.082   1.744
  573DOPC   C1A 6863   2.318   1.058   2.213
  573DOPC   D2A 6864   2.136   1.100   2.670
  573DOPC   C3A 6865   2.282   1.294   3.071
  573DOPC   C4A 6866   2.355   1.515   3.520
  573DOPC   C1B 6867   1.822   1.145   2.129
  573DOPC   D2B 6868   1.615   1.168   2.583
  573DOPC   C3B 6869   1.772   1.191   3.038
  573DOPC   C4B 6870   2.003   1.136   3.479
  574DOPC   NC3 6871  19.222   5.598   0.950
  574DOPC   PO4 6872  19.275   5.868   1.250
  574DOPC   GL1 6873  19.195   5.885   1.676
  574DOPC   GL2 6874  19.093   5.590   1.681
  574DOPC   C1A 6875  19.221   6.062   2.095
  574DOPC   D2A 6876  19.255   6.197   2.585
  574DOPC   C3A 6877  19.002   6.066   2.974
  574DOPC   C4A 6878  19.091   5.733   3.342
  574DOPC   C1B 6879  18.947   5.579   2.118
  574DOPC   D2B 6880  18.830   5.697   2.602
  574DOPC   C3B 6881  18.698   5.629   3.051
  574DOPC   C4B 6882  18.614   5.587   3.544
  575DOPC   NC3 6883  16.464   5.506   1.387
  575DOPC   PO4 6884  16.847   5.505   1.272
  575DOPC   GL1 6885  16.968   5.556   1.692
  575DOPC   GL2 6886  16.717   5.732   1.713
  575DOPC   C1A 6887  16.967   5.601   2.134
  575DOPC   D2A 6888  16.877   5.704   2.616
  575DOPC   C3A 6889  16.917   5.585   3.073
  575DOPC   C4A 6890  16.885   5.553   3.562
  575DOPC   C1B 6891  16.443   5.655   2.068
  575DOPC   D2B 6892  16.285   5.583   2.542
  575DOPC   C3B 6893  16.459   5.783   2.930
  575DOPC   C4B 6894  16.634   5.944   3.361
  576DOPC   NC3 6895   2.716   1.224   1.083
  576DOPC   PO4 6896   2.841   1.555   1.273
  576DOPC   GL1 6897   2.635   1.385   1.595
  576DOPC   GL2 6898   2.752   1.111   1.553
  576DOPC   C1A 6899   2.686   1.427   2.026
  576DOPC   D2A 6900   2.868   1.204   2.433
  576DOPC   C3A 6901   2.768   1.382   2.857
  576DOPC   C4A 6902   2.756   1.647   3.258
  576DOPC   C1B 6903   2.736   0.930   1.961
  576DOPC   D2B 6904   2.648   0.730   2.421
  576DOPC   C3B 6905   2.593   0.906   2.860
  576DOPC   C4B 6906   2.631   1.065   3.337
  577DOPC   NC3 6907  18.528   8.876   1.034
  577DOPC   PO4 6908  18.324   8.640   1.274
  577DOPC   GL1 6909  18.230   8.783   1.635
  577DOPC   GL2 6910  17.976   8.937   1.599
  577DOPC   C1A 6911  18.257   8.675   2.058
  577DOPC   D2A 6912  18.187   8.557   2.536
  577DOPC   C3A 6913  18.175   8.621   2.996
  577DOPC   C4A 6914  18.246   8.871   3.405
  577DOPC   C1B 6915  17.862   9.026   2.029
  577DOPC   D2B 6916  17.940   9.073   2.526
  577DOPC   C3B 6917  17.927   9.081   2.994
  577DOPC   C4B 6918  17.813   9.125   3.465
  578DOPC   NC3 6919  17.460   2.024   1.405
  578DOPC   PO4 6920  17.454   1.640   1.522
  578DOPC   GL1 6921  17.211   1.689   1.878
  578DOPC   GL2 6922  17.360   1.978   1.886
  578DOPC   C1A 6923  17.087   1.712   2.306
  578DOPC   D2A 6924  17.028   2.002   2.720
  578DOPC   C3A 6925  17.148   1.963   3.181
  578DOPC   C4A 6926  17.356   1.801   3.611
  578DOPC   C1B 6927  17.395   2.118   2.323
  578DOPC   D2B 6928  17.543   2.178   2.812
  578DOPC   C3B 6929  17.635   2.146   3.284
  578DOPC   C4B 6930  17.747   2.087   3.785
  579DOPC   NC3 6931   4.918   1.007   1.161
  579DOPC   PO4 6932   5.184   0.800   1.357
  579DOPC   GL1 6933   4.852   0.829   1.661
  579DOPC   GL2 6934   4.964   1.116   1.670
  579DOPC   C1A 6935   4.763   0.796   2.110
  579DOPC   D2A 6936   4.781   0.944   2.601
  579DOPC   C3A 6937   4.857   1.238   2.975
  579DOPC   C4A 6938   4.860   1.214   3.481
  579DOPC   C1B 6939   5.049   1.208   2.117
  579DOPC   D2B 6940   5.197   1.321   2.597
  579DOPC   C3B 6941   5.357   1.328   3.059
  579DOPC   C4B 6942   5.323   1.412   3.558
  580DOPC   NC3 6943   2.737   2.403   0.926
  580DOPC   PO4 6944   2.471   2.643   1.120
  580DOPC   GL1 6945   2.181   2.489   1.407
  580DOPC   GL2 6946   2.087   2.771   1.504
  580DOPC   C1A 6947   2.257   2.352   1.809
  580DOPC   D2A 6948   2.178   2.317   2.296
  580DOPC   C3A 6949   2.330   2.385   2.741
  580DOPC   C4A 6950   2.553   2.476   3.172
  580DOPC   C1B 6951   2.080   2.807   1.970
  580DOPC   D2B 6952   2.101   2.779   2.484
  580DOPC   C3B 6953   2.139   2.850   2.952
  580DOPC   C4B 6954   2.029   3.200   3.288
  581DOPC   NC3 6955   0.908   3.394   1.169
  581DOPC   PO4 6956   0.797   3.778   1.172
  581DOPC   GL1 6957   0.992   3.850   1.567
  581DOPC   GL2 6958   1.135   3.598   1.529
  581DOPC   C1A 6959   0.962   3.954   1.990
  581DOPC   D2A 6960   0.985   4.069   2.472
  581DOPC   C3A 6961   0.964   3.970   2.917
  581DOPC   C4A 6962   1.064   3.653   3.285
  581DOPC   C1B 6963   1.001   3.430   1.907
  581DOPC   D2B 6964   0.790   3.523   2.365
  581DOPC   C3B 6965   0.949   3.436   2.805
  581DOPC   C4B 6966   1.082   3.146   3.188
  582DOPC   NC3 6967   7.292   5.481   1.119
  582DOPC   PO4 6968   6.900   5.378   1.140
  582DOPC   GL1 6969   6.879   5.385   1.601
  582DOPC   GL2 6970   7.131   5.547   1.561
  582DOPC   C1A 6971   6.898   5.300   2.044
  582DOPC   D2A 6972   6.908   5.175   2.516
  582DOPC   C3A 6973   7.048   5.531   2.785
  582DOPC   C4A 6974   6.712   5.831   2.996
  582DOPC   C1B 6975   7.226   5.712   1.958
  582DOPC   D2B 6976   7.065   5.886   2.396
  582DOPC   C3B 6977   7.183   6.022   2.830
  582DOPC   C4B 6978   7.098   5.873   3.294
  583DOPC   NC3 6979   7.187   8.084   1.205
  583DOPC   PO4 6980   7.241   7.743   1.409
  583DOPC   GL1 6981   7.612   7.814   1.605
  583DOPC   GL2 6982   7.514   8.127   1.586
  583DOPC   C1A 6983   7.549   7.609   1.989
  583DOPC   D2A 6984   7.455   7.537   2.479
  583DOPC   C3A 6985   7.484   7.768   2.893
  583DOPC   C4A 6986   7.389   8.072   3.274
  583DOPC   C1B 6987   7.193   8.322   1.877
  583DOPC   D2B 6988   6.962   8.600   2.259
  583DOPC   C3B 6989   7.037   8.571   2.744
  583DOPC   C4B 6990   7.294   8.621   3.190
  584DOPC   NC3 6991  10.566   2.748   1.065
  584DOPC   PO4 6992  10.707   2.526   1.360
  584DOPC   GL1 6993  10.728   2.873   1.641
  584DOPC   GL2 6994  10.666   2.630   1.838
  584DOPC   C1A 6995  10.790   3.091   2.015
  584DOPC   D2A 6996  10.788   3.117   2.515
  584DOPC   C3A 6997  10.827   2.976   2.967
  584DOPC   C4A 6998  10.794   2.585   3.286
  584DOPC   C1B 6999  10.595   2.687   2.287
  584DOPC   D2B 7000  10.563   2.566   2.777
  584DOPC   C3B 7001  10.350   2.800   3.130
  584DOPC   C4B 7002  10.286   3.071   3.541
  585DOPC   NC3 7003   0.556   2.196   1.059
  585DOPC   PO4 7004   0.918   2.022   1.120
  585DOPC   GL1 7005   1.010   2.220   1.499
  585DOPC   GL2 7006   0.836   2.452   1.413
  585DOPC   C1A 7007   0.939   2.033   1.889
  585DOPC   D2A 7008   0.709   1.840   2.292
  585DOPC   C3A 7009   0.785   1.774   2.747
  585DOPC   C4A 7010   0.879   1.747   3.233
  585DOPC   C1B 7011   0.534   2.324   1.722
  585DOPC   D2B 7012   0.306   2.139   2.142
  585DOPC   C3B 7013   0.355   2.049   2.609
  585DOPC   C4B 7014   0.410   1.937   3.092
  586DOPC   NC3 7015   5.186   3.901   1.241
  586DOPC   PO4 7016   5.545   3.761   1.375
  586DOPC   GL1 7017   5.460   3.621   1.770
  586DOPC   GL2 7018   5.155   3.616   1.672
  586DOPC   C1A 7019   5.532   3.463   2.205
  586DOPC   D2A 7020   5.662   3.186   2.597
  586DOPC   C3A 7021   5.482   3.177   3.026
  586DOPC   C4A 7022   5.374   3.511   3.368
  586DOPC   C1B 7023   5.068   3.387   2.032
  586DOPC   D2B 7024   5.161   3.312   2.532
  586DOPC   C3B 7025   5.084   3.508   2.956
  586DOPC   C4B 7026   4.864   3.816   3.297
  587DOPC   NC3 7027  19.714   5.684   1.111
  587DOPC   PO4 7028   0.072   5.746   1.268
  587DOPC   GL1 7029  19.851   5.924   1.591
  587DOPC   GL2 7030  19.610   5.730   1.562
  587DOPC   C1A 7031  19.864   5.932   2.035
  587DOPC   D2A 7032  19.762   5.976   2.524
  587DOPC   C3A 7033  19.906   5.833   2.947
  587DOPC   C4A 7034   0.131   5.541   3.272
  587DOPC   C1B 7035  19.450   5.623   1.968
  587DOPC   D2B 7036  19.337   5.699   2.449
  587DOPC   C3B 7037  19.406   5.782   2.908
  587DOPC   C4B 7038  19.571   5.938   3.352
  588DOPC   NC3 7039   4.484   2.673   1.352
  588DOPC   PO4 7040   4.699   3.018   1.339
  588DOPC   GL1 7041   4.775   3.049   1.805
  588DOPC   GL2 7042   4.688   2.762   1.755
  588DOPC   C1A 7043   4.855   2.997   2.271
  588DOPC   D2A 7044   4.812   3.039   2.788
  588DOPC   C3A 7045   4.598   3.008   3.212
  588DOPC   C4A 7046   4.462   3.114   3.689
  588DOPC   C1B 7047   4.745   2.532   2.113
  588DOPC   D2B 7048   4.865   2.554   2.584
  588DOPC   C3B 7049   4.649   2.558   3.000
  588DOPC   C4B 7050   4.384   2.565   3.416
  589DOPC   NC3 7051  19.220   2.733   1.049
  589DOPC   PO4 7052  19.164   3.069   1.267
  589DOPC   GL1 7053  19.000   2.998   1.664
  589DOPC   GL2 7054  18.857   2.739   1.603
  589DOPC   C1A 7055  18.858   2.991   2.086
  589DOPC   D2A 7056  18.743   2.871   2.546
  589DOPC   C3A 7057  18.915   2.845   2.984
  589DOPC   C4A 7058  19.083   2.848   3.451
  589DOPC   C1B 7059  18.557   2.601   1.945
  589DOPC   D2B 7060  18.383   2.523   2.434
  589DOPC   C3B 7061  18.433   2.680   2.904
  589DOPC   C4B 7062  18.554   2.932   3.330
  590DOPC   NC3 7063  18.051   3.564   0.776
  590DOPC   PO4 7064  17.704   3.567   0.989
  590DOPC   GL1 7065  17.714   3.348   1.416
  590DOPC   GL2 7066  17.959   3.525   1.455
  590DOPC   C1A 7067  17.659   3.184   1.849
  590DOPC   D2A 7068  17.638   3.128   2.358
  590DOPC   C3A 7069  17.771   3.347   2.770
  590DOPC   C4A 7070  17.951   3.602   3.171
  590DOPC   C1B 7071  18.064   3.494   1.893
  590DOPC   D2B 7072  18.119   3.317   2.361
  590DOPC   C3B 7073  18.284   3.547   2.738
  590DOPC   C4B 7074  18.587   3.749   3.086
  591DOPC   NC3 7075  14.210   3.560   0.773
  591DOPC   PO4 7076  14.216   3.199   0.946
  591DOPC   GL1 7077  14.113   3.208   1.367
  591DOPC   GL2 7078  14.060   3.504   1.389
  591DOPC   C1A 7079  14.284   3.139   1.777
  591DOPC   D2A 7080  14.499   3.136   2.235
  591DOPC   C3A 7081  14.388   3.224   2.695
  591DOPC   C4A 7082  14.170   3.340   3.133
  591DOPC   C1B 7083  14.016   3.573   1.837
  591DOPC   D2B 7084  14.112   3.502   2.332
  591DOPC   C3B 7085  14.187   3.696   2.757
  591DOPC   C4B 7086  14.340   3.845   3.213
  592DOPC   NC3 7087   8.817   8.635   0.785
  592DOPC   PO4 7088   8.672   8.987   0.911
  592DOPC   GL1 7089   8.550   8.974   1.322
  592DOPC   GL2 7090   8.828   8.869   1.379
  592DOPC   C1A 7091   8.438   9.121   1.734
  592DOPC   D2A 7092   8.420   9.128   2.248
  592DOPC   C3A 7093   8.524   8.974   2.697
  592DOPC   C4A 7094   8.672   8.886   3.174
  592DOPC   C1B 7095   8.893   8.928   1.824
  592DOPC   D2B 7096   8.900   8.961   2.335
  592DOPC   C3B 7097   9.035   9.005   2.798
  592DOPC   C4B 7098   9.152   9.063   3.295
  593DOPC   NC3 7099  11.426   8.140   0.976
  593DOPC   PO4 7100  11.705   8.133   1.263
  593DOPC   GL1 7101  11.567   8.365   1.613
  593DOPC   GL2 7102  11.293   8.280   1.482
  593DOPC   C1A 7103  11.478   8.392   2.063
  593DOPC   D2A 7104  11.432   8.507   2.566
  593DOPC   C3A 7105  11.566   8.321   2.986
  593DOPC   C4A 7106  11.484   7.906   3.254
  593DOPC   C1B 7107  11.025   8.234   1.844
  593DOPC   D2B 7108  11.094   8.210   2.341
  593DOPC   C3B 7109  11.145   8.086   2.793
  593DOPC   C4B 7110  10.982   7.844   3.196
  594DOPC   NC3 7111  17.196   9.827   1.095
  594DOPC   PO4 7112  17.196   0.158   1.326
  594DOPC   GL1 7113  17.039   9.930   1.644
  594DOPC   GL2 7114  17.122   9.661   1.531
  594DOPC   C1A 7115  17.214   9.903   2.051
  594DOPC   D2A 7116  17.383   9.847   2.514
  594DOPC   C3A 7117  17.295   9.822   2.969
  594DOPC   C4A 7118  17.169   9.647   3.402
  594DOPC   C1B 7119  17.373   9.452   1.855
  594DOPC   D2B 7120  17.638   9.425   2.288
  594DOPC   C3B 7121  17.647   9.475   2.765
  594DOPC   C4B 7122  17.668   9.561   3.251
  595DOPC   NC3 7123   0.112   6.977   1.235
  595DOPC   PO4 7124   0.105   7.362   1.341
  595DOPC   GL1 7125   0.401   7.243   1.606
  595DOPC   GL2 7126   0.421   7.519   1.751
  595DOPC   C1A 7127   0.257   7.080   1.978
  595DOPC   D2A 7128   0.093   7.177   2.440
  595DOPC   C3A 7129   0.142   7.297   2.886
  595DOPC   C4A 7130   0.257   7.531   3.295
  595DOPC   C1B 7131   0.425   7.501   2.215
  595DOPC   D2B 7132   0.597   7.411   2.679
  595DOPC   C3B 7133   0.727   7.592   3.110
  595DOPC   C4B 7134   0.704   7.632   3.617
  596DOPC   NC3 7135   9.172   8.897   1.038
  596DOPC   PO4 7136   9.145   8.504   1.146
  596DOPC   GL1 7137   9.126   8.583   1.597
  596DOPC   GL2 7138   9.246   8.866   1.506
  596DOPC   C1A 7139   9.267   8.653   2.029
  596DOPC   D2A 7140   9.411   8.882   2.462
  596DOPC   C3A 7141   9.488   8.829   2.935
  596DOPC   C4A 7142   9.416   8.621   3.383
  596DOPC   C1B 7143   9.570   8.997   1.782
  596DOPC   D2B 7144   9.776   9.186   2.211
  596DOPC   C3B 7145   9.818   9.162   2.689
  596DOPC   C4B 7146   9.914   9.065   3.166
  597DOPC   NC3 7147  12.651   1.035   1.295
  597DOPC   PO4 7148  12.661   1.433   1.214
  597DOPC   GL1 7149  12.955   1.437   1.512
  597DOPC   GL2 7150  13.082   1.169   1.412
  597DOPC   C1A 7151  12.697   1.451   1.897
  597DOPC   D2A 7152  12.429   1.494   2.330
  597DOPC   C3A 7153  12.533   1.551   2.794
  597DOPC   C4A 7154  12.697   1.534   3.265
  597DOPC   C1B 7155  12.906   1.019   1.784
  597DOPC   D2B 7156  12.738   1.071   2.254
  597DOPC   C3B 7157  12.791   1.104   2.722
  597DOPC   C4B 7158  12.972   1.098   3.173
  598DOPC   NC3 7159  14.791   8.947   1.215
  598DOPC   PO4 7160  15.190   8.898   1.238
  598DOPC   GL1 7161  15.157   8.997   1.656
  598DOPC   GL2 7162  14.864   9.050   1.665
  598DOPC   C1A 7163  15.109   8.751   2.023
  598DOPC   D2A 7164  15.046   8.561   2.497
  598DOPC   C3A 7165  15.160   8.536   2.962
  598DOPC   C4A 7166  15.326   8.523   3.427
  598DOPC   C1B 7167  14.649   8.988   2.069
  598DOPC   D2B 7168  14.647   8.870   2.568
  598DOPC   C3B 7169  14.597   8.864   3.045
  598DOPC   C4B 7170  14.554   8.803   3.539
  599DOPC   NC3 7171   3.005   0.498   1.036
  599DOPC   PO4 7172   3.006   0.829   1.267
  599DOPC   GL1 7173   3.102   0.815   1.702
  599DOPC   GL2 7174   3.396   0.791   1.614
  599DOPC   C1A 7175   3.094   0.605   2.119
  599DOPC   D2A 7176   3.284   0.439   2.571
  599DOPC   C3A 7177   3.276   0.353   3.059
  599DOPC   C4A 7178   3.194   0.484   3.541
  599DOPC   C1B 7179   3.609   0.629   1.983
  599DOPC   D2B 7180   3.779   0.593   2.459
  599DOPC   C3B 7181   3.747   0.465   2.913
  599DOPC   C4B 7182   3.689   0.337   3.398
  600DOPC   NC3 7183   4.224   7.978   1.088
  600DOPC   PO4 7184   4.480   8.164   1.344
  600DOPC   GL1 7185   4.444   7.889   1.621
  600DOPC   GL2 7186   4.210   7.746   1.518
  600DOPC   C1A 7187   4.353   8.102   1.999
  600DOPC   D2A 7188   4.369   8.372   2.419
  600DOPC   C3A 7189   4.366   8.222   2.845
  600DOPC   C4A 7190   4.463   8.312   3.309
  600DOPC   C1B 7191   3.994   7.762   1.895
  600DOPC   D2B 7192   3.995   7.959   2.363
  600DOPC   C3B 7193   3.930   7.946   2.827
  600DOPC   C4B 7194   3.885   7.927   3.325
  601DOPC   NC3 7195   7.301   3.381   1.144
  601DOPC   PO4 7196   7.507   3.724   1.189
  601DOPC   GL1 7197   7.600   3.650   1.611
  601DOPC   GL2 7198   7.351   3.469   1.629
  601DOPC   C1A 7199   7.618   3.659   2.051
  601DOPC   D2A 7200   7.358   3.733   2.470
  601DOPC   C3A 7201   7.241   3.746   2.934
  601DOPC   C4A 7202   7.190   3.731   3.433
  601DOPC   C1B 7203   7.150   3.448   2.059
  601DOPC   D2B 7204   7.023   3.348   2.555
  601DOPC   C3B 7205   7.105   3.267   3.027
  601DOPC   C4B 7206   7.062   3.231   3.530
  602DOPC   NC3 7207  13.503   0.369   1.271
  602DOPC   PO4 7208  13.549   0.742   1.414
  602DOPC   GL1 7209  13.221   0.712   1.720
  602DOPC   GL2 7210  13.204   0.434   1.618
  602DOPC   C1A 7211  13.183   0.770   2.189
  602DOPC   D2A 7212  13.214   0.778   2.718
  602DOPC   C3A 7213  13.263   0.658   3.177
  602DOPC   C4A 7214  13.344   0.645   3.669
  602DOPC   C1B 7215  13.412   0.329   1.983
  602DOPC   D2B 7216  13.514   0.480   2.442
  602DOPC   C3B 7217  13.541   0.336   2.881
  602DOPC   C4B 7218  13.595   9.969   3.210
  603DOPC   NC3 7219   3.342   1.637   1.218
  603DOPC   PO4 7220   3.736   1.552   1.261
  603DOPC   GL1 7221   3.708   1.522   1.695
  603DOPC   GL2 7222   3.391   1.598   1.688
  603DOPC   C1A 7223   4.002   1.484   2.042
  603DOPC   D2A 7224   4.224   1.586   2.493
  603DOPC   C3A 7225   4.003   1.532   2.923
  603DOPC   C4A 7226   3.622   1.576   3.254
  603DOPC   C1B 7227   3.105   1.742   2.032
  603DOPC   D2B 7228   2.985   1.718   2.540
  603DOPC   C3B 7229   3.182   1.802   2.989
  603DOPC   C4B 7230   3.446   2.086   3.329
  604DOPC   NC3 7231  12.843   0.699   0.887
  604DOPC   PO4 7232  13.064   0.723   1.224
  604DOPC   GL1 7233  12.789   0.620   1.560
  604DOPC   GL2 7234  12.810   0.319   1.458
  604DOPC   C1A 7235  12.729   0.601   2.019
  604DOPC   D2A 7236  12.765   0.621   2.533
  604DOPC   C3A 7237  12.755   0.655   3.018
  604DOPC   C4A 7238  12.857   0.706   3.513
  604DOPC   C1B 7239  12.933   0.151   1.858
  604DOPC   D2B 7240  13.056   0.247   2.342
  604DOPC   C3B 7241  13.036   0.274   2.821
  604DOPC   C4B 7242  12.963   0.214   3.311
  605DOPC   NC3 7243  13.870   7.049   0.929
  605DOPC   PO4 7244  14.193   6.863   1.093
  605DOPC   GL1 7245  14.363   7.093   1.454
  605DOPC   GL2 7246  14.617   6.942   1.450
  605DOPC   C1A 7247  14.341   7.029   1.889
  605DOPC   D2A 7248  14.317   6.887   2.360
  605DOPC   C3A 7249  14.283   7.015   2.812
  605DOPC   C4A 7250  14.396   7.005   3.288
  605DOPC   C1B 7251  14.605   6.610   1.746
  605DOPC   D2B 7252  14.570   6.449   2.237
  605DOPC   C3B 7253  14.465   6.518   2.707
  605DOPC   C4B 7254  14.371   6.499   3.208
  606DOPC   NC3 7255  18.133   5.300   1.239
  606DOPC   PO4 7256  17.748   5.283   1.350
  606DOPC   GL1 7257  17.817   5.360   1.807
  606DOPC   GL2 7258  18.069   5.200   1.733
  606DOPC   C1A 7259  17.927   5.371   2.257
  606DOPC   D2A 7260  18.193   5.281   2.689
  606DOPC   C3A 7261  18.305   5.330   3.169
  606DOPC   C4A 7262  18.358   5.155   3.657
  606DOPC   C1B 7263  18.265   5.016   2.101
  606DOPC   D2B 7264  18.434   4.781   2.527
  606DOPC   C3B 7265  18.261   4.863   2.959
  606DOPC   C4B 7266  17.970   5.010   3.346
  607DOPC   NC3 7267   5.886   9.604   1.137
  607DOPC   PO4 7268   5.540   9.524   1.334
  607DOPC   GL1 7269   5.719   9.483   1.719
  607DOPC   GL2 7270   5.992   9.405   1.554
  607DOPC   C1A 7271   5.705   9.590   2.173
  607DOPC   D2A 7272   5.466   9.776   2.586
  607DOPC   C3A 7273   5.592   9.938   3.013
  607DOPC   C4A 7274   5.723   0.108   3.462
  607DOPC   C1B 7275   6.151   9.615   1.902
  607DOPC   D2B 7276   6.160   9.839   2.349
  607DOPC   C3B 7277   5.923   9.618   2.683
  607DOPC   C4B 7278   5.605   9.410   2.990
  608DOPC   NC3 7279   6.063   4.110   1.277
  608DOPC   PO4 7280   6.105   4.511   1.329
  608DOPC   GL1 7281   5.983   4.516   1.737
  608DOPC   GL2 7282   6.073   4.217   1.771
  608DOPC   C1A 7283   6.020   4.665   2.162
  608DOPC   D2A 7284   6.072   4.801   2.618
  608DOPC   C3A 7285   6.005   4.600   3.021
  608DOPC   C4A 7286   6.136   4.347   3.419
  608DOPC   C1B 7287   6.118   4.167   2.224
  608DOPC   D2B 7288   6.103   4.136   2.733
  608DOPC   C3B 7289   5.812   4.143   3.112
  608DOPC   C4B 7290   5.577   4.272   3.546
  609DOPC   NC3 7291   0.500   5.551   1.108
  609DOPC   PO4 7292   0.702   5.198   1.096
  609DOPC   GL1 7293   0.932   5.255   1.456
  609DOPC   GL2 7294   0.956   4.951   1.487
  609DOPC   C1A 7295   0.592   5.344   1.733
  609DOPC   D2A 7296   0.272   5.299   2.130
  609DOPC   C3A 7297   0.177   5.236   2.599
  609DOPC   C4A 7298   0.046   5.078   3.066
  609DOPC   C1B 7299   0.708   4.856   1.869
  609DOPC   D2B 7300   0.486   4.875   2.339
  609DOPC   C3B 7301   0.318   4.744   2.771
  609DOPC   C4B 7302   0.142   4.523   3.191
  610DOPC   NC3 7303  11.302   1.505   0.964
  610DOPC   PO4 7304  11.374   1.116   1.017
  610DOPC   GL1 7305  11.538   1.166   1.421
  610DOPC   GL2 7306  11.384   1.433   1.445
  610DOPC   C1A 7307  11.466   0.999   1.842
  610DOPC   D2A 7308  11.475   0.762   2.297
  610DOPC   C3A 7309  11.295   0.898   2.716
  610DOPC   C4A 7310  11.114   1.073   3.148
  610DOPC   C1B 7311  11.412   1.554   1.890
  610DOPC   D2B 7312  11.412   1.733   2.384
  610DOPC   C3B 7313  11.301   1.724   2.861
  610DOPC   C4B 7314  11.067   1.607   3.307
  611DOPC   NC3 7315   2.061   5.270   0.825
  611DOPC   PO4 7316   1.848   5.257   1.172
  611DOPC   GL1 7317   2.035   5.082   1.505
  611DOPC   GL2 7318   1.853   4.830   1.457
  611DOPC   C1A 7319   2.031   5.087   1.944
  611DOPC   D2A 7320   1.910   5.013   2.426
  611DOPC   C3A 7321   2.031   5.077   2.883
  611DOPC   C4A 7322   2.244   5.385   3.208
  611DOPC   C1B 7323   1.746   4.652   1.845
  611DOPC   D2B 7324   1.637   4.590   2.327
  611DOPC   C3B 7325   1.714   4.661   2.794
  611DOPC   C4B 7326   1.765   4.815   3.267
  612DOPC   NC3 7327  14.244   7.384   1.080
  612DOPC   PO4 7328  14.589   7.179   1.052
  612DOPC   GL1 7329  14.790   7.361   1.356
  612DOPC   GL2 7330  14.516   7.524   1.444
  612DOPC   C1A 7331  14.775   7.301   1.767
  612DOPC   D2A 7332  14.638   7.344   2.236
  612DOPC   C3A 7333  14.570   7.414   2.679
  612DOPC   C4A 7334  14.474   7.492   3.146
  612DOPC   C1B 7335  14.317   7.530   1.870
  612DOPC   D2B 7336  14.126   7.355   2.325
  612DOPC   C3B 7337  14.066   7.539   2.771
  612DOPC   C4B 7338  13.941   7.888   3.117
  613DOPC   NC3 7339   1.107   6.434   1.297
  613DOPC   PO4 7340   1.219   6.062   1.393
  613DOPC   GL1 7341   1.123   6.131   1.787
  613DOPC   GL2 7342   0.984   6.423   1.736
  613DOPC   C1A 7343   1.136   6.050   2.217
  613DOPC   D2A 7344   1.168   6.106   2.699
  613DOPC   C3A 7345   1.090   6.470   2.988
  613DOPC   C4A 7346   0.903   6.767   3.349
  613DOPC   C1B 7347   0.966   6.760   2.047
  613DOPC   D2B 7348   0.878   7.022   2.470
  613DOPC   C3B 7349   1.089   7.002   2.901
  613DOPC   C4B 7350   1.388   6.904   3.294
  614DOPC   NC3 7351  11.491   9.753   1.193
  614DOPC   PO4 7352  11.272   9.430   1.291
  614DOPC   GL1 7353  11.356   9.487   1.685
  614DOPC   GL2 7354  11.329   9.796   1.663
  614DOPC   C1A 7355  11.410   9.387   2.113
  614DOPC   D2A 7356  11.228   9.574   2.533
  614DOPC   C3A 7357  11.210   9.703   2.973
  614DOPC   C4A 7358  11.230   9.820   3.460
  614DOPC   C1B 7359  11.060   9.789   2.012
  614DOPC   D2B 7360  10.752   9.674   2.390
  614DOPC   C3B 7361  10.697   9.786   2.842
  614DOPC   C4B 7362  10.828   0.067   3.231
  615DOPC   NC3 7363   8.223   7.113   1.099
  615DOPC   PO4 7364   7.972   7.003   1.377
  615DOPC   GL1 7365   7.982   7.059   1.773
  615DOPC   GL2 7366   7.923   7.361   1.790
  615DOPC   C1A 7367   8.013   6.887   2.171
  615DOPC   D2A 7368   7.846   6.623   2.545
  615DOPC   C3A 7369   7.800   6.846   2.956
  615DOPC   C4A 7370   7.719   7.117   3.368
  615DOPC   C1B 7371   7.924   7.410   2.259
  615DOPC   D2B 7372   7.898   7.441   2.769
  615DOPC   C3B 7373   7.891   7.644   3.211
  615DOPC   C4B 7374   8.129   7.887   3.591
  616DOPC   NC3 7375  10.750   5.863   1.291
  616DOPC   PO4 7376  11.022   5.584   1.392
  616DOPC   GL1 7377  11.085   5.742   1.826
  616DOPC   GL2 7378  10.942   5.990   1.707
  616DOPC   C1A 7379  11.087   5.853   2.291
  616DOPC   D2A 7380  10.939   6.192   2.659
  616DOPC   C3A 7381  10.962   5.914   3.041
  616DOPC   C4A 7382  10.899   5.561   3.375
  616DOPC   C1B 7383  10.721   6.134   2.077
  616DOPC   D2B 7384  10.441   6.195   2.509
  616DOPC   C3B 7385  10.545   6.181   2.981
  616DOPC   C4B 7386  10.717   6.127   3.448
  617DOPC   NC3 7387  15.869   2.487   1.094
  617DOPC   PO4 7388  15.504   2.458   1.248
  617DOPC   GL1 7389  15.590   2.702   1.560
  617DOPC   GL2 7390  15.893   2.662   1.559
  617DOPC   C1A 7391  15.502   2.669   1.979
  617DOPC   D2A 7392  15.392   2.674   2.466
  617DOPC   C3A 7393  15.686   2.791   2.823
  617DOPC   C4A 7394  15.936   3.012   3.199
  617DOPC   C1B 7395  16.115   2.691   1.972
  617DOPC   D2B 7396  16.270   2.706   2.454
  617DOPC   C3B 7397  16.211   2.665   2.929
  617DOPC   C4B 7398  16.213   2.643   3.439
  618DOPC   NC3 7399   8.984   4.699   0.969
  618DOPC   PO4 7400   8.662   4.614   1.202
  618DOPC   GL1 7401   8.617   4.564   1.649
  618DOPC   GL2 7402   8.916   4.497   1.662
  618DOPC   C1A 7403   8.500   4.599   2.096
  618DOPC   D2A 7404   8.400   4.598   2.607
  618DOPC   C3A 7405   8.351   4.492   3.080
  618DOPC   C4A 7406   8.245   4.459   3.575
  618DOPC   C1B 7407   8.898   4.272   2.047
  618DOPC   D2B 7408   8.860   4.131   2.523
  618DOPC   C3B 7409   8.808   4.428   2.886
  618DOPC   C4B 7410   8.682   4.866   3.109
  619DOPC   NC3 7411  10.292   7.998   0.991
  619DOPC   PO4 7412  10.584   7.729   1.031
  619DOPC   GL1 7413  10.549   7.652   1.438
  619DOPC   GL2 7414  10.327   7.880   1.463
  619DOPC   C1A 7415  10.803   7.741   1.798
  619DOPC   D2A 7416  10.687   7.924   2.248
  619DOPC   C3A 7417  10.676   7.891   2.721
  619DOPC   C4A 7418  10.474   7.860   3.176
  619DOPC   C1B 7419  10.468   8.132   1.804
  619DOPC   D2B 7420  10.638   8.428   2.175
  619DOPC   C3B 7421  10.720   8.389   2.635
  619DOPC   C4B 7422  10.740   8.295   3.116
  620DOPC   NC3 7423  18.831   3.656   1.295
  620DOPC   PO4 7424  19.184   3.847   1.326
  620DOPC   GL1 7425  19.385   3.627   1.657
  620DOPC   GL2 7426  19.152   3.431   1.581
  620DOPC   C1A 7427  19.244   3.734   2.065
  620DOPC   D2A 7428  18.924   3.771   2.457
  620DOPC   C3A 7429  19.059   3.666   2.894
  620DOPC   C4A 7430  19.062   3.792   3.377
  620DOPC   C1B 7431  18.833   3.474   1.908
  620DOPC   D2B 7432  18.620   3.350   2.358
  620DOPC   C3B 7433  18.719   3.298   2.816
  620DOPC   C4B 7434  18.909   3.307   3.267
  621DOPC   NC3 7435  16.058   1.289   1.114
  621DOPC   PO4 7436  15.719   1.496   1.170
  621DOPC   GL1 7437  15.704   1.364   1.588
  621DOPC   GL2 7438  16.013   1.409   1.573
  621DOPC   C1A 7439  15.681   1.352   2.046
  621DOPC   D2A 7440  15.834   1.375   2.534
  621DOPC   C3A 7441  15.787   1.395   3.006
  621DOPC   C4A 7442  15.750   1.227   3.466
  621DOPC   C1B 7443  16.180   1.346   1.984
  621DOPC   D2B 7444  16.313   1.167   2.428
  621DOPC   C3B 7445  16.285   1.384   2.840
  621DOPC   C4B 7446  16.170   1.659   3.243
  622DOPC   NC3 7447   5.685   8.728   1.116
  622DOPC   PO4 7448   5.828   9.097   1.184
  622DOPC   GL1 7449   5.666   9.084   1.556
  622DOPC   GL2 7450   5.486   8.839   1.535
  622DOPC   C1A 7451   5.954   9.133   1.923
  622DOPC   D2A 7452   6.177   9.281   2.352
  622DOPC   C3A 7453   5.976   9.105   2.742
  622DOPC   C4A 7454   5.785   8.950   3.174
  622DOPC   C1B 7455   5.643   8.737   1.931
  622DOPC   D2B 7456   5.929   8.762   2.339
  622DOPC   C3B 7457   5.831   8.609   2.780
  622DOPC   C4B 7458   5.625   8.468   3.223
  623DOPC   NC3 7459  11.908   8.839   0.989
  623DOPC   PO4 7460  11.605   8.627   1.147
  623DOPC   GL1 7461  11.910   8.641   1.459
  623DOPC   GL2 7462  11.849   8.941   1.496
  623DOPC   C1A 7463  11.912   8.580   1.887
  623DOPC   D2A 7464  11.899   8.527   2.388
  623DOPC   C3A 7465  11.825   8.745   2.811
  623DOPC   C4A 7466  11.524   8.885   3.186
  623DOPC   C1B 7467  11.946   9.127   1.908
  623DOPC   D2B 7468  11.879   9.405   2.341
  623DOPC   C3B 7469  11.670   9.433   2.779
  623DOPC   C4B 7470  11.500   9.400   3.251
  624DOPC   NC3 7471   9.008   3.318   1.252
  624DOPC   PO4 7472   8.664   3.208   1.425
  624DOPC   GL1 7473   8.835   3.316   1.753
  624DOPC   GL2 7474   8.900   3.608   1.648
  624DOPC   C1A 7475   8.747   3.282   2.186
  624DOPC   D2A 7476   8.800   3.278   2.679
  624DOPC   C3A 7477   8.874   3.332   3.135
  624DOPC   C4A 7478   8.877   3.253   3.622
  624DOPC   C1B 7479   8.686   3.755   2.017
  624DOPC   D2B 7480   8.456   3.641   2.457
  624DOPC   C3B 7481   8.456   3.580   2.928
  624DOPC   C4B 7482   8.511   3.588   3.418
  625DOPC   NC3 7483  14.553   0.542   1.264
  625DOPC   PO4 7484  14.219   0.774   1.297
  625DOPC   GL1 7485  13.947   0.738   1.678
  625DOPC   GL2 7486  13.905   0.457   1.534
  625DOPC   C1A 7487  13.911   0.658   2.143
  625DOPC   D2A 7488  13.969   0.539   2.654
  625DOPC   C3A 7489  14.181   0.640   3.080
  625DOPC   C4A 7490  14.532   0.862   3.382
  625DOPC   C1B 7491  13.890   0.182   1.879
  625DOPC   D2B 7492  13.771   0.045   2.351
  625DOPC   C3B 7493  13.924  10.008   2.805
  625DOPC   C4B 7494  14.105   0.091   3.272
  626DOPC   NC3 7495  18.012   3.913   1.194
  626DOPC   PO4 7496  18.384   3.922   1.363
  626DOPC   GL1 7497  18.419   3.791   1.789
  626DOPC   GL2 7498  18.149   3.964   1.851
  626DOPC   C1A 7499  18.422   3.790   2.228
  626DOPC   D2A 7500  18.415   4.036   2.658
  626DOPC   C3A 7501  18.437   4.380   2.971
  626DOPC   C4A 7502  18.223   4.063   3.269
  626DOPC   C1B 7503  18.049   4.139   2.290
  626DOPC   D2B 7504  17.990   4.414   2.742
  626DOPC   C3B 7505  18.007   4.526   3.230
  626DOPC   C4B 7506  18.056   4.680   3.718
  627DOPC   NC3 7507   1.399   2.118   0.985
  627DOPC   PO4 7508   1.336   2.414   1.249
  627DOPC   GL1 7509   1.471   2.146   1.564
  627DOPC   GL2 7510   1.320   1.914   1.431
  627DOPC   C1A 7511   1.443   2.009   1.990
  627DOPC   D2A 7512   1.194   2.003   2.427
  627DOPC   C3A 7513   1.221   2.010   2.901
  627DOPC   C4A 7514   1.245   2.065   3.398
  627DOPC   C1B 7515   1.201   1.610   1.755
  627DOPC   D2B 7516   1.115   1.520   2.248
  627DOPC   C3B 7517   1.244   1.532   2.708
  627DOPC   C4B 7518   1.412   1.589   3.180
  628DOPC   NC3 7519  19.444   3.632   0.957
  628DOPC   PO4 7520  19.575   3.430   1.266
  628DOPC   GL1 7521  19.500   3.141   1.599
  628DOPC   GL2 7522  19.793   3.232   1.663
  628DOPC   C1A 7523  19.294   3.215   1.969
  628DOPC   D2A 7524  19.120   3.305   2.418
  628DOPC   C3A 7525  19.255   3.190   2.837
  628DOPC   C4A 7526  19.466   3.174   3.279
  628DOPC   C1B 7527  19.708   3.490   2.027
  628DOPC   D2B 7528  19.537   3.653   2.483
  628DOPC   C3B 7529  19.564   3.582   2.949
  628DOPC   C4B 7530  19.566   3.687   3.430
  629DOPC   NC3 7531  15.086   9.367   1.321
  629DOPC   PO4 7532  14.705   9.415   1.425
  629DOPC   GL1 7533  14.888   9.592   1.735
  629DOPC   GL2 7534  15.082   9.767   1.544
  629DOPC   C1A 7535  15.065   9.284   2.037
  629DOPC   D2A 7536  15.246   9.024   2.429
  629DOPC   C3A 7537  15.058   9.012   2.860
  629DOPC   C4A 7538  15.010   8.940   3.348
  629DOPC   C1B 7539  15.346   9.653   1.878
  629DOPC   D2B 7540  15.498   9.463   2.317
  629DOPC   C3B 7541  15.356   9.405   2.763
  629DOPC   C4B 7542  15.169   9.411   3.217
  630DOPC   NC3 7543   9.457   0.735   1.035
  630DOPC   PO4 7544   9.738   0.579   1.265
  630DOPC   GL1 7545   9.536   0.723   1.644
  630DOPC   GL2 7546   9.280   0.624   1.499
  630DOPC   C1A 7547   9.541   0.605   2.093
  630DOPC   D2A 7548   9.595   0.441   2.577
  630DOPC   C3A 7549   9.544   0.609   3.012
  630DOPC   C4A 7550   9.466   0.848   3.440
  630DOPC   C1B 7551   9.116   0.416   1.877
  630DOPC   D2B 7552   9.116   0.492   2.385
  630DOPC   C3B 7553   9.128   0.314   2.835
  630DOPC   C4B 7554   9.059   0.151   3.310
  631DOPC   NC3 7555   4.123   1.939   1.206
  631DOPC   PO4 7556   4.435   1.694   1.190
  631DOPC   GL1 7557   4.372   1.582   1.603
  631DOPC   GL2 7558   4.103   1.677   1.596
  631DOPC   C1A 7559   4.523   1.585   2.009
  631DOPC   D2A 7560   4.761   1.533   2.447
  631DOPC   C3A 7561   4.615   1.690   2.858
  631DOPC   C4A 7562   4.529   1.997   3.240
  631DOPC   C1B 7563   4.166   1.982   1.916
  631DOPC   D2B 7564   4.287   2.358   2.245
  631DOPC   C3B 7565   4.308   2.289   2.717
  631DOPC   C4B 7566   4.076   2.224   3.155
  632DOPC   NC3 7567   6.594   0.493   1.002
  632DOPC   PO4 7568   6.871   0.666   1.242
  632DOPC   GL1 7569   6.770   0.666   1.651
  632DOPC   GL2 7570   6.481   0.611   1.625
  632DOPC   C1A 7571   6.796   0.630   2.091
  632DOPC   D2A 7572   6.547   0.594   2.522
  632DOPC   C3A 7573   6.714   0.518   2.951
  632DOPC   C4A 7574   6.923   0.326   3.355
  632DOPC   C1B 7575   6.267   0.627   2.036
  632DOPC   D2B 7576   6.002   0.687   2.473
  632DOPC   C3B 7577   6.179   0.689   2.912
  632DOPC   C4B 7578   6.448   0.759   3.321
  633DOPC   NC3 7579   8.209   9.197   0.889
  633DOPC   PO4 7580   8.040   9.514   1.065
  633DOPC   GL1 7581   8.221   9.632   1.458
  633DOPC   GL2 7582   7.963   9.780   1.526
  633DOPC   C1A 7583   8.327   9.602   1.895
  633DOPC   D2A 7584   8.446   9.637   2.384
  633DOPC   C3A 7585   8.367   9.689   2.860
  633DOPC   C4A 7586   8.164   9.654   3.324
  633DOPC   C1B 7587   7.856   9.786   1.976
  633DOPC   D2B 7588   7.959   9.788   2.486
  633DOPC   C3B 7589   7.824   9.656   2.925
  633DOPC   C4B 7590   7.623   9.530   3.368
  634DOPC   NC3 7591  16.222   0.796   1.157
  634DOPC   PO4 7592  16.472   0.722   1.464
  634DOPC   GL1 7593  16.783   0.595   1.718
  634DOPC   GL2 7594  16.795   0.322   1.562
  634DOPC   C1A 7595  16.707   0.537   2.177
  634DOPC   D2A 7596  16.715   0.508   2.711
  634DOPC   C3A 7597  16.585   0.557   3.187
  634DOPC   C4A 7598  16.344   0.576   3.643
  634DOPC   C1B 7599  16.712   0.074   1.927
  634DOPC   D2B 7600  16.805   9.823   2.345
  634DOPC   C3B 7601  16.807   9.956   2.787
  634DOPC   C4B 7602  16.875   0.091   3.251
  635DOPC   NC3 7603   3.750   1.141   0.924
  635DOPC   PO4 7604   3.361   1.186   1.015
  635DOPC   GL1 7605   3.178   1.238   1.425
  635DOPC   GL2 7606   3.489   1.205   1.480
  635DOPC   C1A 7607   3.123   1.256   1.861
  635DOPC   D2A 7608   3.352   1.407   2.298
  635DOPC   C3A 7609   3.285   1.342   2.760
  635DOPC   C4A 7610   3.151   1.280   3.237
  635DOPC   C1B 7611   3.594   1.129   1.923
  635DOPC   D2B 7612   3.405   0.922   2.361
  635DOPC   C3B 7613   3.417   0.856   2.829
  635DOPC   C4B 7614   3.536   0.841   3.308
  636DOPC   NC3 7615   3.918   6.417   1.108
  636DOPC   PO4 7616   4.130   6.701   1.285
  636DOPC   GL1 7617   4.244   6.480   1.617
  636DOPC   GL2 7618   4.541   6.473   1.564
  636DOPC   C1A 7619   4.170   6.618   2.040
  636DOPC   D2A 7620   4.118   6.808   2.490
  636DOPC   C3A 7621   3.978   6.932   2.919
  636DOPC   C4A 7622   3.863   7.056   3.373
  636DOPC   C1B 7623   4.641   6.431   1.994
  636DOPC   D2B 7624   4.609   6.601   2.466
  636DOPC   C3B 7625   4.365   6.583   2.878
  636DOPC   C4B 7626   4.268   6.694   3.350
  637DOPC   NC3 7627   4.150   9.067   1.046
  637DOPC   PO4 7628   4.195   9.434   1.197
  637DOPC   GL1 7629   4.255   9.206   1.531
  637DOPC   GL2 7630   4.564   9.244   1.530
  637DOPC   C1A 7631   4.156   9.171   1.966
  637DOPC   D2A 7632   4.012   9.348   2.404
  637DOPC   C3A 7633   4.184   9.320   2.835
  637DOPC   C4A 7634   4.217   9.657   3.197
  637DOPC   C1B 7635   4.578   9.448   1.940
  637DOPC   D2B 7636   4.552   9.393   2.457
  637DOPC   C3B 7637   4.623   9.597   2.896
  637DOPC   C4B 7638   4.662   9.872   3.322
  638DOPC   NC3 7639  12.607   2.784   1.300
  638DOPC   PO4 7640  12.936   2.562   1.398
  638DOPC   GL1 7641  12.861   2.222   1.646
  638DOPC   GL2 7642  12.553   2.252   1.594
  638DOPC   C1A 7643  12.983   2.251   2.078
  638DOPC   D2A 7644  13.059   2.272   2.573
  638DOPC   C3A 7645  12.998   2.568   2.945
  638DOPC   C4A 7646  12.881   2.978   3.221
  638DOPC   C1B 7647  12.460   2.407   2.016
  638DOPC   D2B 7648  12.543   2.373   2.515
  638DOPC   C3B 7649  12.487   2.465   2.976
  638DOPC   C4B 7650  12.519   2.639   3.443
  639DOPC   NC3 7651   1.595   5.696   1.257
  639DOPC   PO4 7652   1.731   6.066   1.329
  639DOPC   GL1 7653   1.565   5.931   1.697
  639DOPC   GL2 7654   1.727   5.658   1.702
  639DOPC   C1A 7655   1.649   6.063   2.102
  639DOPC   D2A 7656   1.640   6.273   2.560
  639DOPC   C3A 7657   1.582   6.147   3.022
  639DOPC   C4A 7658   1.569   5.820   3.403
  639DOPC   C1B 7659   1.835   5.543   2.134
  639DOPC   D2B 7660   2.006   5.506   2.603
  639DOPC   C3B 7661   1.923   5.727   3.018
  639DOPC   C4B 7662   2.080   5.853   3.478
  640DOPC   NC3 7663  16.596   3.651   1.350
  640DOPC   PO4 7664  16.680   3.393   1.058
  640DOPC   GL1 7665  16.765   3.228   1.449
  640DOPC   GL2 7666  16.496   3.120   1.496
  640DOPC   C1A 7667  16.837   3.379   1.858
  640DOPC   D2A 7668  16.892   3.368   2.355
  640DOPC   C3A 7669  16.830   3.411   2.821
  640DOPC   C4A 7670  16.606   3.597   3.231
  640DOPC   C1B 7671  16.386   3.135   1.938
  640DOPC   D2B 7672  16.384   3.211   2.443
  640DOPC   C3B 7673  16.399   3.156   2.920
  640DOPC   C4B 7674  16.378   3.171   3.414
  641DOPC   NC3 7675   1.419   0.642   1.297
  641DOPC   PO4 7676   1.045   0.794   1.295
  641DOPC   GL1 7677   0.923   0.759   1.736
  641DOPC   GL2 7678   1.179   0.570   1.726
  641DOPC   C1A 7679   0.950   0.727   2.182
  641DOPC   D2A 7680   1.168   0.559   2.615
  641DOPC   C3A 7681   1.082   0.585   3.088
  641DOPC   C4A 7682   1.175   0.805   3.520
  641DOPC   C1B 7683   1.284   0.333   2.099
  641DOPC   D2B 7684   1.332   0.068   2.536
  641DOPC   C3B 7685   1.441   0.218   2.976
  641DOPC   C4B 7686   1.395   0.323   3.465
  642DOPC   NC3 7687   6.887   4.883   0.970
  642DOPC   PO4 7688   6.559   4.722   1.133
  642DOPC   GL1 7689   6.312   4.954   1.398
  642DOPC   GL2 7690   6.502   5.183   1.424
  642DOPC   C1A 7691   6.254   4.934   1.825
  642DOPC   D2A 7692   6.435   5.029   2.300
  642DOPC   C3A 7693   6.528   4.916   2.766
  642DOPC   C4A 7694   6.427   4.772   3.235
  642DOPC   C1B 7695   6.466   5.381   1.838
  642DOPC   D2B 7696   6.574   5.582   2.306
  642DOPC   C3B 7697   6.538   5.424   2.758
  642DOPC   C4B 7698   6.540   5.291   3.247
  643DOPC   NC3 7699   2.573   1.869   0.968
  643DOPC   PO4 7700   2.336   1.561   1.082
  643DOPC   GL1 7701   2.245   1.624   1.529
  643DOPC   GL2 7702   2.498   1.797   1.525
  643DOPC   C1A 7703   2.195   1.499   1.969
  643DOPC   D2A 7704   2.403   1.493   2.450
  643DOPC   C3A 7705   2.346   1.735   2.856
  643DOPC   C4A 7706   2.356   2.003   3.276
  643DOPC   C1B 7707   2.514   1.911   1.959
  643DOPC   D2B 7708   2.546   1.992   2.456
  643DOPC   C3B 7709   2.736   2.054   2.888
  643DOPC   C4B 7710   2.920   2.125   3.342
  644DOPC   NC3 7711  19.547   4.119   1.103
  644DOPC   PO4 7712  19.639   4.483   1.245
  644DOPC   GL1 7713  19.392   4.501   1.609
  644DOPC   GL2 7714  19.408   4.179   1.579
  644DOPC   C1A 7715  19.528   4.517   2.040
  644DOPC   D2A 7716  19.751   4.461   2.496
  644DOPC   C3A 7717  19.683   4.468   2.959
  644DOPC   C4A 7718  19.362   4.429   3.349
  644DOPC   C1B 7719  19.676   4.008   1.907
  644DOPC   D2B 7720  19.935   3.971   2.348
  644DOPC   C3B 7721  19.825   3.996   2.815
  644DOPC   C4B 7722  19.795   4.127   3.303
  645DOPC   NC3 7723   3.403   6.392   1.042
  645DOPC   PO4 7724   3.576   6.755   1.023
  645DOPC   GL1 7725   3.687   6.751   1.431
  645DOPC   GL2 7726   3.564   7.016   1.498
  645DOPC   C1A 7727   3.715   6.552   1.830
  645DOPC   D2A 7728   3.790   6.365   2.300
  645DOPC   C3A 7729   3.865   6.434   2.771
  645DOPC   C4A 7730   3.797   6.522   3.264
  645DOPC   C1B 7731   3.548   7.055   1.943
  645DOPC   D2B 7732   3.294   7.173   2.367
  645DOPC   C3B 7733   3.128   6.968   2.774
  645DOPC   C4B 7734   3.100   6.694   3.197
  646DOPC   NC3 7735  14.633   2.267   0.969
  646DOPC   PO4 7736  14.481   1.928   1.125
  646DOPC   GL1 7737  14.569   1.899   1.579
  646DOPC   GL2 7738  14.406   1.640   1.535
  646DOPC   C1A 7739  14.436   2.104   1.985
  646DOPC   D2A 7740  14.326   2.240   2.475
  646DOPC   C3A 7741  14.370   2.178   2.955
  646DOPC   C4A 7742  14.380   2.066   3.451
  646DOPC   C1B 7743  14.087   1.748   1.819
  646DOPC   D2B 7744  13.940   1.935   2.257
  646DOPC   C3B 7745  14.015   1.884   2.714
  646DOPC   C4B 7746  14.057   1.744   3.193
  647DOPC   NC3 7747   3.729   3.302   0.664
  647DOPC   PO4 7748   3.878   3.416   1.027
  647DOPC   GL1 7749   3.928   3.273   1.489
  647DOPC   GL2 7750   4.169   3.449   1.460
  647DOPC   C1A 7751   4.017   3.242   1.936
  647DOPC   D2A 7752   4.024   3.114   2.436
  647DOPC   C3A 7753   3.802   3.085   2.872
  647DOPC   C4A 7754   3.576   3.079   3.330
  647DOPC   C1B 7755   4.257   3.731   1.795
  647DOPC   D2B 7756   4.343   3.797   2.297
  647DOPC   C3B 7757   4.130   3.723   2.722
  647DOPC   C4B 7758   3.960   3.597   3.178
  648DOPC   NC3 7759  16.160   8.919   1.262
  648DOPC   PO4 7760  16.459   8.655   1.195
  648DOPC   GL1 7761  16.429   8.528   1.648
  648DOPC   GL2 7762  16.258   8.766   1.677
  648DOPC   C1A 7763  16.406   8.628   2.095
  648DOPC   D2A 7764  16.293   8.969   2.446
  648DOPC   C3A 7765  16.171   8.888   2.885
  648DOPC   C4A 7766  15.952   8.767   3.310
  648DOPC   C1B 7767  15.910   8.694   1.951
  648DOPC   D2B 7768  15.521   8.540   2.228
  648DOPC   C3B 7769  15.555   8.671   2.676
  648DOPC   C4B 7770  15.495   8.908   3.110
  649DOPC   NC3 7771   8.868   2.749   1.339
  649DOPC   PO4 7772   8.573   2.472   1.337
  649DOPC   GL1 7773   8.468   2.572   1.707
  649DOPC   GL2 7774   8.386   2.859   1.606
  649DOPC   C1A 7775   8.655   2.520   2.113
  649DOPC   D2A 7776   8.749   2.333   2.579
  649DOPC   C3A 7777   8.943   2.375   3.011
  649DOPC   C4A 7778   9.151   2.587   3.409
  649DOPC   C1B 7779   8.344   2.966   2.032
  649DOPC   D2B 7780   8.351   3.118   2.513
  649DOPC   C3B 7781   8.337   3.036   2.987
  649DOPC   C4B 7782   8.237   2.693   3.349
  650DOPC   NC3 7783  18.850   0.730   1.170
  650DOPC   PO4 7784  18.475   0.747   1.305
  650DOPC   GL1 7785  18.515   0.848   1.720
  650DOPC   GL2 7786  18.818   0.934   1.645
  650DOPC   C1A 7787  18.529   0.638   2.125
  650DOPC   D2A 7788  18.566   0.470   2.610
  650DOPC   C3A 7789  18.792   0.358   3.009
  650DOPC   C4A 7790  19.095   0.430   3.397
  650DOPC   C1B 7791  18.860   1.031   2.068
  650DOPC   D2B 7792  18.880   1.008   2.562
  650DOPC   C3B 7793  18.790   0.877   2.997
  650DOPC   C4B 7794  18.643   0.680   3.421
  651DOPC   NC3 7795  18.833   7.968   1.262
  651DOPC   PO4 7796  18.494   8.136   1.407
  651DOPC   GL1 7797  18.644   8.092   1.822
  651DOPC   GL2 7798  18.935   8.133   1.695
  651DOPC   C1A 7799  18.698   8.171   2.285
  651DOPC   D2A 7800  18.841   8.063   2.769
  651DOPC   C3A 7801  18.872   8.006   3.245
  651DOPC   C4A 7802  18.860   7.910   3.735
  651DOPC   C1B 7803  19.151   8.232   2.080
  651DOPC   D2B 7804  19.116   8.436   2.542
  651DOPC   C3B 7805  19.158   8.392   3.013
  651DOPC   C4B 7806  19.388   8.184   3.401
  652DOPC   NC3 7807   1.217   5.828   0.943
  652DOPC   PO4 7808   0.967   5.649   1.197
  652DOPC   GL1 7809   0.996   5.705   1.625
  652DOPC   GL2 7810   1.276   5.582   1.586
  652DOPC   C1A 7811   0.838   5.646   2.047
  652DOPC   D2A 7812   0.662   5.440   2.478
  652DOPC   C3A 7813   0.894   5.653   2.838
  652DOPC   C4A 7814   1.116   5.946   3.176
  652DOPC   C1B 7815   1.358   5.635   2.012
  652DOPC   D2B 7816   1.501   5.741   2.494
  652DOPC   C3B 7817   1.415   5.590   2.939
  652DOPC   C4B 7818   1.177   5.465   3.361
  653DOPC   NC3 7819   2.732   5.383   1.066
  653DOPC   PO4 7820   2.395   5.243   1.221
  653DOPC   GL1 7821   2.599   5.115   1.563
  653DOPC   GL2 7822   2.890   5.199   1.469
  653DOPC   C1A 7823   2.548   5.147   2.001
  653DOPC   D2A 7824   2.421   5.099   2.486
  653DOPC   C3A 7825   2.545   4.998   2.932
  653DOPC   C4A 7826   2.707   4.928   3.391
  653DOPC   C1B 7827   3.087   5.166   1.874
  653DOPC   D2B 7828   3.008   5.122   2.381
  653DOPC   C3B 7829   3.034   5.233   2.841
  653DOPC   C4B 7830   3.203   5.217   3.318
  654DOPC   NC3 7831   9.656   3.459   0.773
  654DOPC   PO4 7832   9.470   3.453   1.125
  654DOPC   GL1 7833   9.372   3.601   1.528
  654DOPC   GL2 7834   9.681   3.620   1.561
  654DOPC   C1A 7835   9.253   3.387   1.903
  654DOPC   D2A 7836   9.226   3.201   2.359
  654DOPC   C3A 7837   9.306   3.328   2.798
  654DOPC   C4A 7838   9.330   3.587   3.217
  654DOPC   C1B 7839   9.796   3.376   1.911
  654DOPC   D2B 7840   9.754   3.192   2.390
  654DOPC   C3B 7841   9.831   3.256   2.854
  654DOPC   C4B 7842   9.837   3.259   3.348
  655DOPC   NC3 7843  11.134   0.494   1.206
  655DOPC   PO4 7844  11.182   0.123   1.342
  655DOPC   GL1 7845  11.231   0.244   1.756
  655DOPC   GL2 7846  11.170   0.537   1.677
  655DOPC   C1A 7847  11.207   0.243   2.211
  655DOPC   D2A 7848  11.077   0.115   2.682
  655DOPC   C3A 7849  11.325   0.174   3.082
  655DOPC   C4A 7850  11.570   0.198   3.508
  655DOPC   C1B 7851  11.045   0.727   2.044
  655DOPC   D2B 7852  10.924   0.596   2.514
  655DOPC   C3B 7853  11.012   0.551   2.981
  655DOPC   C4B 7854  11.104   0.453   3.463
  656DOPC   NC3 7855   5.971   2.928   0.940
  656DOPC   PO4 7856   5.708   3.160   1.139
  656DOPC   GL1 7857   5.877   3.051   1.521
  656DOPC   GL2 7858   5.648   2.833   1.509
  656DOPC   C1A 7859   6.111   2.876   1.867
  656DOPC   D2A 7860   6.176   2.760   2.358
  656DOPC   C3A 7861   6.296   2.833   2.815
  656DOPC   C4A 7862   6.346   3.012   3.290
  656DOPC   C1B 7863   5.649   2.650   1.917
  656DOPC   D2B 7864   5.697   2.556   2.405
  656DOPC   C3B 7865   5.769   2.722   2.827
  656DOPC   C4B 7866   5.690   2.761   3.301
  657DOPC   NC3 7867  14.471   5.621   0.911
  657DOPC   PO4 7868  14.729   5.384   1.105
  657DOPC   GL1 7869  14.446   5.304   1.323
  657DOPC   GL2 7870  14.247   5.515   1.306
  657DOPC   C1A 7871  14.522   5.230   1.735
  657DOPC   D2A 7872  14.521   5.199   2.216
  657DOPC   C3A 7873  14.441   5.211   2.669
  657DOPC   C4A 7874  14.349   5.205   3.155
  657DOPC   C1B 7875  14.131   5.573   1.726
  657DOPC   D2B 7876  14.052   5.484   2.233
  657DOPC   C3B 7877  14.023   5.540   2.716
  657DOPC   C4B 7878  14.046   5.710   3.195
  658DOPC   NC3 7879  15.499   6.693   1.213
  658DOPC   PO4 7880  15.611   7.030   1.409
  658DOPC   GL1 7881  16.033   7.117   1.535
  658DOPC   GL2 7882  16.059   6.820   1.581
  658DOPC   C1A 7883  16.084   7.277   1.949
  658DOPC   D2A 7884  16.185   7.326   2.440
  658DOPC   C3A 7885  16.024   7.155   2.850
  658DOPC   C4A 7886  15.771   7.039   3.265
  658DOPC   C1B 7887  16.146   6.787   2.031
  658DOPC   D2B 7888  16.322   6.821   2.508
  658DOPC   C3B 7889  16.227   6.576   2.903
  658DOPC   C4B 7890  16.026   6.313   3.280
  659DOPC   NC3 7891  15.877   3.526   1.119
  659DOPC   PO4 7892  16.190   3.285   1.177
  659DOPC   GL1 7893  16.205   3.433   1.616
  659DOPC   GL2 7894  15.909   3.365   1.552
  659DOPC   C1A 7895  16.010   3.488   2.026
  659DOPC   D2A 7896  15.717   3.563   2.434
  659DOPC   C3A 7897  15.785   3.813   2.839
  659DOPC   C4A 7898  15.936   3.943   3.298
  659DOPC   C1B 7899  15.799   3.062   1.843
  659DOPC   D2B 7900  15.822   2.959   2.337
  659DOPC   C3B 7901  15.939   3.217   2.719
  659DOPC   C4B 7902  16.083   3.497   3.107
  660DOPC   NC3 7903  11.125   0.948   1.440
  660DOPC   PO4 7904  10.955   1.269   1.277
  660DOPC   GL1 7905  10.987   1.494   1.650
  660DOPC   GL2 7906  10.686   1.513   1.602
  660DOPC   C1A 7907  10.985   1.248   2.013
  660DOPC   D2A 7908  10.705   1.056   2.388
  660DOPC   C3A 7909  10.686   0.919   2.847
  660DOPC   C4A 7910  10.707   0.783   3.326
  660DOPC   C1B 7911  10.465   1.283   1.922
  660DOPC   D2B 7912  10.163   1.087   2.272
  660DOPC   C3B 7913  10.229   1.110   2.730
  660DOPC   C4B 7914  10.335   1.143   3.219
  661DOPC   NC3 7915  12.947   5.745   1.125
  661DOPC   PO4 7916  12.952   5.363   1.252
  661DOPC   GL1 7917  12.727   5.415   1.623
  661DOPC   GL2 7918  12.711   5.727   1.537
  661DOPC   C1A 7919  12.841   5.335   2.063
  661DOPC   D2A 7920  13.010   5.402   2.549
  661DOPC   C3A 7921  12.903   5.530   3.001
  661DOPC   C4A 7922  13.037   5.693   3.460
  661DOPC   C1B 7923  12.762   6.028   1.869
  661DOPC   D2B 7924  12.683   6.141   2.361
  661DOPC   C3B 7925  12.652   5.953   2.802
  661DOPC   C4B 7926  12.552   5.817   3.270
  662DOPC   NC3 7927   3.637   4.596   1.148
  662DOPC   PO4 7928   3.267   4.436   1.199
  662DOPC   GL1 7929   3.393   4.661   1.559
  662DOPC   GL2 7930   3.600   4.432   1.614
  662DOPC   C1A 7931   3.346   4.662   1.976
  662DOPC   D2A 7932   3.557   4.608   2.432
  662DOPC   C3A 7933   3.442   4.449   2.862
  662DOPC   C4A 7934   3.208   4.214   3.235
  662DOPC   C1B 7935   3.721   4.311   2.052
  662DOPC   D2B 7936   3.812   4.168   2.547
  662DOPC   C3B 7937   3.779   4.074   3.022
  662DOPC   C4B 7938   3.577   3.872   3.442
  663DOPC   NC3 7939  11.185   2.554   1.131
  663DOPC   PO4 7940  11.045   2.906   1.270
  663DOPC   GL1 7941  11.095   2.615   1.621
  663DOPC   GL2 7942  11.385   2.671   1.520
  663DOPC   C1A 7943  11.060   2.617   2.087
  663DOPC   D2A 7944  11.039   2.664   2.598
  663DOPC   C3A 7945  11.239   2.646   3.039
  663DOPC   C4A 7946  11.645   2.448   3.255
  663DOPC   C1B 7947  11.420   2.906   1.860
  663DOPC   D2B 7948  11.250   3.051   2.290
  663DOPC   C3B 7949  11.452   2.952   2.688
  663DOPC   C4B 7950  11.694   2.926   3.109
  664DOPC   NC3 7951  12.127   6.419   1.130
  664DOPC   PO4 7952  12.091   6.041   1.264
  664DOPC   GL1 7953  12.335   6.067   1.629
  664DOPC   GL2 7954  12.381   6.363   1.537
  664DOPC   C1A 7955  12.255   6.119   2.064
  664DOPC   D2A 7956  12.211   6.041   2.555
  664DOPC   C3A 7957  12.179   6.103   3.021
  664DOPC   C4A 7958  12.139   6.086   3.512
  664DOPC   C1B 7959  12.149   6.587   1.834
  664DOPC   D2B 7960  12.125   6.553   2.336
  664DOPC   C3B 7961  12.122   6.612   2.797
  664DOPC   C4B 7962  12.024   6.543   3.282
  665DOPC   NC3 7963  17.149   5.746   0.945
  665DOPC   PO4 7964  17.380   5.417   0.986
  665DOPC   GL1 7965  17.308   5.438   1.418
  665DOPC   GL2 7966  17.249   5.736   1.405
  665DOPC   C1A 7967  17.373   5.433   1.866
  665DOPC   D2A 7968  17.428   5.456   2.363
  665DOPC   C3A 7969  17.369   5.596   2.816
  665DOPC   C4A 7970  17.393   5.555   3.324
  665DOPC   C1B 7971  17.242   5.920   1.827
  665DOPC   D2B 7972  17.280   5.956   2.346
  665DOPC   C3B 7973  17.305   6.146   2.789
  665DOPC   C4B 7974  17.522   6.316   3.216
  666W        W 7975   7.459   5.793   7.548
  667W        W 7976   3.821   1.763   6.676
  668W        W 7977  12.117   8.964   9.252
  669W        W 7978   5.037   6.583   7.518
  670W        W 7979   1.503   8.346   0.547
  671W        W 7980   7.305   6.803   6.088
  672W        W 7981  18.283   4.222   0.875
  673W        W 7982  12.366   5.161   5.826
  674W        W 7983  10.745   3.646   9.470
  675W        W 7984  18.258   2.518   8.950
  676W        W 7985  18.930   5.623   8.629
  677W        W 7986  19.017   2.332   0.832
  678W        W 7987  14.628   6.060   7.847
  679W        W 7988   8.078   6.515   6.662
  680W        W 7989  19.723   5.121   9.706
  681W        W 7990  12.720   0.225   7.336
  682W        W 7991   9.737   8.393   7.257
  683W        W 7992  14.181   4.791   7.508
  684W        W 7993  17.894   9.530   6.398
  685W        W 7994  10.732   7.077   9.205
  686W        W 7995  10.497   6.974   6.174
  687W        W 7996  15.440   7.553   6.219
  688W        W 7997  15.686   8.770   9.047
  689W        W 7998  12.545   7.000   9.806
  690W        W 7999  15.055   9.098   6.327
  691W        W 8000   7.973   2.760   9.587
  692W        W 8001   0.307   7.599   7.914
  693W        W 8002  18.955   8.703   0.121
  694W        W 8003  13.803   4.500   6.023
  695W        W 8004   0.653   8.640   6.057
  696W        W 8005  11.284   0.487   9.544
  697W        W 8006  12.968   4.773   7.379
  698W        W 8007  15.331   0.289   9.455
  699W        W 8008  18.136   4.982   8.842
  700W        W 8009   5.957   7.439   7.862
  701W        W 8010   1.222   4.036   8.242
  702W        W 8011  13.101   2.591   7.619
  703W        W 8012   2.383   7.779   0.119
  704W        W 8013   3.092   3.001   8.394
  705W        W 8014  18.232   2.570   7.423
  706W        W 8015   5.526   5.530   5.929
  707W        W 8016  16.148   5.282   7.356
  708W        W 8017  18.433   5.515   8.800
  709W        W 8018   5.973   6.569   7.107
  710W        W 8019  14.888   6.590   8.658
  711W        W 8020   6.149   1.863   0.428
  712W        W 8021   8.067   1.703   8.421
  713W        W 8022   6.344   4.602   8.043
  714W        W 8023  12.933   4.642   6.859
  715W        W 8024  19.917   4.621   7.203
  716W        W 8025   6.961   6.015   6.392
  717W        W 8026   6.614   6.176   0.021
  718W        W 8027   9.057   7.847   6.755
  719W        W 8028  16.272   6.979   8.549
  720W        W 8029  10.213   9.788   6.961
  721W        W 8030   1.657   4.501   9.346
  722W        W 8031  17.798   2.237   8.444
  723W        W 8032  13.385   8.696   9.244
  724W        W 8033  17.344   7.281   9.277
  725W        W 8034  14.494   6.523   7.391
  726W        W 8035   9.028   7.069   7.870
  727W        W 8036  13.754   2.624   6.637
  728W        W 8037  13.588   4.510   8.558
  729W        W 8038  15.612   1.137   7.540
  730W        W 8039  11.788   6.941   9.139
  731W        W 8040   0.164   9.425   6.444
  732W        W 8041   1.217   3.528   0.339
  733W        W 8042   4.233   1.490   9.516
  734W        W 8043  19.852   7.586   7.240
  735W        W 8044  18.570   2.699   6.044
  736W        W 8045   9.275   8.186   7.981
  737W        W 8046   3.282   1.611   9.414
  738W        W 8047   8.367   9.566   6.428
  739W        W 8048   5.212   9.792   9.946
  740W        W 8049  10.909   0.135   9.849
  741W        W 8050  16.539   6.921   0.244
  742W        W 8051  11.904   1.616   9.894
  743W        W 8052  11.052   8.407   7.587
  744W        W 8053   4.297   5.954   6.754
  745W        W 8054   7.117   6.370   0.037
  746W        W 8055   9.140   8.390   8.426
  747W        W 8056  18.802   5.170   6.955
  748W        W 8057   7.755   3.491   0.374
  749W        W 8058  19.038   2.241   0.322
  750W        W 8059  19.378   6.810   6.999
  751W        W 8060  13.781   3.591   7.292
  752W        W 8061  16.761   4.645   6.053
  753W        W 8062   8.925   6.327   0.188
  754W        W 8063  15.379   1.339   8.981
  755W        W 8064  13.985   0.195   0.713
  756W        W 8065  16.821   4.854   7.496
  757W        W 8066   8.233   7.466   7.981
  758W        W 8067   5.135   9.045   8.343
  759W        W 8068  16.751   5.514   9.915
  760W        W 8069   2.106   0.841   7.748
  761W        W 8070   7.845   6.144   8.250
  762W        W 8071   5.169   7.190   8.298
  763W        W 8072  16.585   2.837   0.582
  764W        W 8073   3.312   2.303   6.806
  765W        W 8074  13.073   6.935   8.847
  766W        W 8075   6.836   1.238   0.145
  767W        W 8076  15.015   1.980   7.513
  768W        W 8077  19.744   8.739   7.814
  769W        W 8078   6.055   5.029   0.113
  770W        W 8079  12.964   9.974   9.386
  771W        W 8080  13.105   1.281   8.580
  772W        W 8081   4.068   4.597   8.553
  773W        W 8082  15.325   8.982   9.445
  774W        W 8083   1.262   5.333   7.984
  775W        W 8084   1.151   9.281   6.833
  776W        W 8085   6.081   2.980   0.370
  777W        W 8086   7.094   7.976   7.347
  778W        W 8087  10.172   5.453   6.275
  779W        W 8088   8.265   9.629   8.000
  780W        W 8089  18.149   9.229   0.160
  781W        W 8090  15.490   3.336   0.064
  782W        W 8091   9.182   3.901   7.573
  783W        W 8092  12.229   8.081   6.743
  784W        W 8093   7.310   2.119   7.523
  785W        W 8094  10.515   3.830   0.313
  786W        W 8095   2.871   3.160   9.850
  787W        W 8096   5.321   2.523   0.396
  788W        W 8097   6.390   2.110   9.083
  789W        W 8098   1.421   8.736   8.383
  790W        W 8099   1.804   0.474   0.063
  791W        W 8100   6.322   2.684   6.068
  792W        W 8101  12.535   6.218   9.878
  793W        W 8102   9.843   1.496   7.086
  794W        W 8103  14.618   9.359   0.471
  795W        W 8104   0.118   8.947   9.601
  796W        W 8105   7.942   8.476   0.706
  797W        W 8106   7.065   0.434   0.801
  798W        W 8107   8.624   6.520   0.545
  799W        W 8108  12.122   0.579   7.898
  800W        W 8109   4.117   2.473   1.052
  801W        W 8110   4.038   8.386   7.479
  802W        W 8111   1.974   8.678   7.013
  803W        W 8112  19.534   9.768   7.544
  804W        W 8113  11.410   4.058   7.979
  805W        W 8114  15.856   0.295   7.505
  806W        W 8115  17.376   8.402   6.992
  807W        W 8116  12.381   1.758   0.010
  808W        W 8117   9.185   0.873   8.655
  809W        W 8118   8.395   5.086   9.739
  810W        W 8119  11.524   2.522   0.196
  811W        W 8120  15.744   2.558   9.565
  812W        W 8121   3.043   5.452   6.670
  813W        W 8122  17.341   2.987   6.517
  814W        W 8123  18.920   7.086   6.140
  815W        W 8124  13.898   8.854   0.842
  816W        W 8125   8.560   7.066   6.716
  817W        W 8126  17.265   4.164   0.758
  818W        W 8127   1.136   8.943   8.738
  819W        W 8128  16.647   6.013   7.922
  820W        W 8129  17.988   4.543   8.497
  821W        W 8130   9.936   5.227   5.893
  822W        W 8131  12.164   3.479   9.809
  823W        W 8132  12.612   2.599   7.807
  824W        W 8133  11.166   2.192   9.929
  825W        W 8134   3.669   4.658   7.782
  826W        W 8135   1.367   3.297   9.712
  827W        W 8136  19.148   2.648   7.860
  828W        W 8137   2.616   9.955   7.943
  829W        W 8138   7.475   8.386   6.819
  830W        W 8139  10.091   4.655   6.856
  831W        W 8140   8.466   6.602   6.998
  832W        W 8141   0.592   4.415   5.696
  833W        W 8142  14.681   6.600   6.416
  834W        W 8143  11.004   8.936   0.574
  835W        W 8144  10.426   8.095   6.651
  836W        W 8145   0.374   7.501   7.412
  837W        W 8146   2.662   7.907   8.830
  838W        W 8147   8.105   7.111   8.931
  839W        W 8148  15.929   4.836   6.136
  840W        W 8149   9.343   1.388   0.073
  841W        W 8150   9.065   9.163   7.450
  842W        W 8151  10.865   9.622   9.854
  843W        W 8152  19.961   7.262   8.118
  844W        W 8153  16.595   3.615   7.302
  845W        W 8154  16.848   5.852   6.292
  846W        W 8155  13.323   4.753   5.970
  847W        W 8156  18.261   6.598   6.400
  848W        W 8157  17.021   1.196   7.248
  849W        W 8158   9.679   4.114   7.416
  850W        W 8159  13.605   0.218   7.324
  851W        W 8160   5.853   1.833   0.013
  852W        W 8161   8.097   7.871   9.254
  853W        W 8162   4.687   2.527   6.808
  854W        W 8163  18.846   3.019   9.411
  855W        W 8164   3.925   3.831   7.414
  856W        W 8165   8.693   2.456   9.854
  857W        W 8166   1.197   9.164   8.029
  858W        W 8167  15.933   5.204   9.695
  859W        W 8168  11.760   3.423   0.591
  860W        W 8169  10.471   0.141   0.749
  861W        W 8170   6.718   4.159   6.664
  862W        W 8171   3.541   5.996   9.841
  863W        W 8172   4.808   5.165   7.150
  864W        W 8173  14.588   4.140   7.070
  865W        W 8174  14.934   5.959   9.812
  866W        W 8175  15.100   3.704   0.732
  867W        W 8176   0.552   1.210   0.547
  868W        W 8177   0.473   1.588   9.927
  869W        W 8178   1.841   9.870   6.026
  870W        W 8179   2.227   0.738   8.462
  871W        W 8180   6.069   8.188   7.454
  872W        W 8181   5.809   9.961   7.768
  873W        W 8182  11.103   6.074   7.337
  874W        W 8183  10.743   1.173   6.573
  875W        W 8184  19.861   0.887   9.293
  876W        W 8185   0.236   7.912   0.635
  877W        W 8186   7.365   9.338   9.919
  878W        W 8187  11.808   5.686   7.660
  879W        W 8188   3.468   9.459   7.029
  880W        W 8189  17.811   2.240   7.934
  881W        W 8190   2.853   1.821   9.643
  882W        W 8191   9.105   0.465   7.729
  883W        W 8192   9.882   8.965   6.575
  884W        W 8193   1.728   8.290   7.253
  885W        W 8194   2.494   0.303   6.640
  886W        W 8195   6.947   1.273   9.638
  887W        W 8196  19.918   6.963   8.830
  888W        W 8197  15.555   6.293   7.644
  889W        W 8198   1.685   9.739   9.762
  890W        W 8199   7.370   7.406   0.657
  891W        W 8200  13.813   9.422   6.605
  892W        W 8201   4.852   5.325   9.071
  893W        W 8202   4.080   1.531   0.863
  894W        W 8203  19.136   7.331   9.118
  895W        W 8204   4.686   0.299   6.947
  896W        W 8205  16.738   1.680   9.210
  897W        W 8206   5.577   2.061   6.955
  898W        W 8207   0.289   5.812   7.182
  899W        W 8208   6.400   2.574   9.320
  900W        W 8209   1.182   4.146   9.664
  901W        W 8210  16.583   5.112   9.155
  902W        W 8211   3.594   1.552   8.679
  903W        W 8212  13.745   2.468   0.407
  904W        W 8213   2.910   2.497   8.424
  905W        W 8214   9.101   2.588   0.591
  906W        W 8215  11.413   6.481   7.237
  907W        W 8216  17.244   2.360   6.773
  908W        W 8217   4.676   4.073   9.533
  909W        W 8218   5.403   1.619   7.156
  910W        W 8219  15.829   9.533   7.918
  911W        W 8220   1.469   1.341   7.325
  912W        W 8221  15.688   5.572   8.311
  913W        W 8222  16.784   7.017   7.314
  914W        W 8223  18.698   2.643   8.676
  915W        W 8224   6.018   9.266   7.315
  916W        W 8225  15.556   6.870   8.937
  917W        W 8226   4.454   9.300   6.256
  918W        W 8227  18.394   6.960   7.206
  919W        W 8228   6.793   8.890   6.072
  920W        W 8229  16.638   9.157   9.088
  921W        W 8230   8.892   1.324   0.437
  922W        W 8231  16.016   8.617   6.149
  923W        W 8232  13.159   2.227   8.745
  924W        W 8233   0.025   9.431   8.277
  925W        W 8234  10.959   8.411   9.378
  926W        W 8235  15.216   1.457   6.947
  927W        W 8236  14.227   1.687   6.518
  928W        W 8237   4.671   0.661   9.877
  929W        W 8238   4.423   4.254   6.801
  930W        W 8239   9.175   4.362   6.655
  931W        W 8240   2.775   8.861   6.389
  932W        W 8241  15.897   2.144   9.873
  933W        W 8242  12.069   1.087   0.701
  934W        W 8243   3.754   2.645   6.847
  935W        W 8244  17.467   3.014   8.143
  936W        W 8245   9.936   0.223   6.907
  937W        W 8246   0.179   3.387   9.013
  938W        W 8247  13.733   2.479   0.932
  939W        W 8248   6.695   8.873   7.141
  940W        W 8249  16.196   0.414   9.013
  941W        W 8250   5.143   4.194   9.754
  942W        W 8251  16.840   4.011   0.438
  943W        W 8252  14.470   3.513   8.327
  944W        W 8253  18.438   0.623   5.978
  945W        W 8254   6.123   8.486   6.156
  946W        W 8255   4.370   8.204   7.878
  947W        W 8256  18.289   2.891   0.964
  948W        W 8257  14.972   1.838   8.635
  949W        W 8258   3.804   5.942   6.500
  950W        W 8259  17.449   3.064   8.673
  951W        W 8260  17.829   3.984   0.173
  952W        W 8261   6.278   8.286   9.707
  953W        W 8262  11.280   7.284   0.843
  954W        W 8263   1.632   1.269   8.843
  955W        W 8264  18.987   4.633   6.815
  956W        W 8265  16.749   9.962   6.497
  957W        W 8266  11.116   4.585   0.517
  958W        W 8267  11.326   7.648   7.021
  959W        W 8268   5.737   7.119   0.479
  960W        W 8269   3.943   6.842   9.211
  961W        W 8270   8.107   4.913   0.175
  962W        W 8271  12.515   8.871   8.116
  963W        W 8272   4.622   2.492   9.423
  964W        W 8273   2.066   1.494   0.598
  965W        W 8274  11.721   3.384   9.553
  966W        W 8275  15.770   2.997   1.232
  967W        W 8276  13.500   1.741   0.304
  968W        W 8277   2.691   5.080   8.707
  969W        W 8278  12.951   5.581   9.604
  970W        W 8279   8.047   2.789   6.983
  971W        W 8280  10.918   6.672   6.098
  972W        W 8281   0.107   7.426   0.838
  973W        W 8282   3.413   8.072   0.919
  974W        W 8283  15.104   3.604   7.633
  975W        W 8284   9.086   5.550   0.657
  976W        W 8285  10.066   1.345   0.648
  977W        W 8286  13.670   9.211   9.897
  978W        W 8287   1.180   4.366   6.401
  979W        W 8288   4.908   8.161   8.675
  980W        W 8289  11.862   2.056   7.032
  981W        W 8290   7.680   7.167   8.636
  982W        W 8291  14.871   5.955   8.292
  983W        W 8292   6.870   3.984   8.079
  984W        W 8293  14.813   1.706   0.100
  985W        W 8294   8.999   0.171   8.143
  986W        W 8295   9.986   6.829   0.687
  987W        W 8296   1.136   6.740   6.303
  988W        W 8297  12.700   5.179   6.241
  989W        W 8298  18.202   2.088   9.227
  990W        W 8299  10.390   6.624   7.420
  991W        W 8300   5.916   2.255   9.714
  992W        W 8301  17.907   4.909   0.365
  993W        W 8302   8.264   5.637   6.483
  994W        W 8303   5.050   8.327   0.704
  995W        W 8304   2.120   1.084   0.271
  996W        W 8305  19.568   1.226   9.610
  997W        W 8306  18.626   0.783   7.504
  998W        W 8307   3.063   5.399   8.541
  999W        W 8308   4.355   5.127   6.833
 1000W        W 8309  17.454   9.941   8.487
 1001W        W 8310   7.391   4.618   0.159
 1002W        W 8311   9.507   2.456   6.970
 1003W        W 8312   6.133   6.361   7.883
 1004W        W 8313   4.341   0.661   0.436
 1005W        W 8314  16.349   7.120   7.075
 1006W        W 8315   1.285   5.665   7.567
 1007W        W 8316  11.000   7.036   7.815
 1008W        W 8317   9.901   3.256   1.404
 1009W        W 8318  10.604   9.669   7.807
 1010W        W 8319   0.605   7.072   7.128
 1011W        W 8320  19.316   0.137   7.215
 1012W        W 8321   6.690   3.543   6.928
 1013W        W 8322   2.722   8.847   8.792
 1014W        W 8323   6.465   8.682   9.451
 1015W        W 8324   5.865   2.751   9.508
 1016W        W 8325   6.404   6.851   7.052
 1017W        W 8326   9.290   1.581   7.043
 1018W        W 8327   8.457   1.692   6.569
 1019W        W 8328   3.075   2.062   9.249
 1020W        W 8329  19.477   9.255   8.066
 1021W        W 8330   4.143   8.406   6.290
 1022W        W 8331  16.833   6.599   6.997
 1023W        W 8332  14.779   4.688   7.978
 1024W        W 8333  11.883   9.424   0.173
 1025W        W 8334  17.651   9.082   8.961
 1026W        W 8335  14.737   1.601   0.784
 1027W        W 8336  17.735   4.087   8.666
 1028W        W 8337  13.352   8.476   7.307
 1029W        W 8338  14.111   8.360   9.990
 1030W        W 8339  13.670   2.348   8.892
 1031W        W 8340  14.605   5.896   6.940
 1032W        W 8341  18.219   5.039   7.729
 1033W        W 8342  18.313   9.835   7.271
 1034W        W 8343   9.019   1.870   8.711
 1035W        W 8344   9.581   1.432   8.727
 1036W        W 8345   5.407   3.528   0.956
 1037W        W 8346  13.424   1.147   7.742
 1038W        W 8347  14.623   6.106   8.722
 1039W        W 8348   9.384   2.893   6.709
 1040W        W 8349  16.604   0.025   0.735
 1041W        W 8350   3.913   6.818   0.247
 1042W        W 8351   7.345   9.276   8.571
 1043W        W 8352  14.343   2.655   8.393
 1044W        W 8353  10.417   5.667   9.185
 1045W        W 8354  17.432   6.032   0.120
 1046W        W 8355  14.225   9.591   6.361
 1047W        W 8356   7.306   5.536   6.427
 1048W        W 8357   6.787   9.095   7.611
 1049W        W 8358   8.470   5.113   8.883
 1050W        W 8359   0.870   9.699   5.983
 1051W        W 8360   2.104   2.636   7.812
 1052W        W 8361   8.927   7.483   0.450
 1053W        W 8362  13.347   5.720   7.438
 1054W        W 8363  18.941   0.088   9.892
 1055W        W 8364  10.301   4.508   0.910
 1056W        W 8365   4.693   5.708   8.740
 1057W        W 8366   2.246   8.324   0.131
 1058W        W 8367  14.623   1.695   7.708
 1059W        W 8368   4.232   7.237   9.446
 1060W        W 8369  16.822   7.585   6.607
 1061W        W 8370   4.191   9.182   7.582
 1062W        W 8371   9.072   6.816   0.193
 1063W        W 8372  13.394   1.287   0.593
 1064W        W 8373   6.026   3.015   6.922
 1065W        W 8374   2.086   5.457   9.204
 1066W        W 8375  10.311   2.008   9.268
 1067W        W 8376   0.786   3.015   0.854
 1068W        W 8377   2.893   8.304   9.947
 1069W        W 8378  13.181   6.818   6.700
 1070W        W 8379  17.132   4.368   9.476
 1071W        W 8380   1.939   4.089   9.469
 1072W        W 8381   1.554   5.803   9.695
 1073W        W 8382  18.993   5.176   9.576
 1074W        W 8383  15.782   4.638   0.222
 1075W        W 8384   0.106   0.211   6.818
 1076W        W 8385  11.640   8.722   7.557
 1077W        W 8386   5.808   8.315   7.932
 1078W        W 8387  17.788   1.789   7.681
 1079W        W 8388  15.540   8.639   7.884
 1080W        W 8389   6.753   8.387   9.877
 1081W        W 8390   6.888   1.673   8.944
 1082W        W 8391  15.070   4.217   9.891
 1083W        W 8392   6.685   3.283   6.110
 1084W        W 8393  10.286   5.976   9.570
 1085W        W 8394   6.840   5.467   0.349
 1086W        W 8395   9.125   3.232   9.740
 1087W        W 8396  18.772   3.607   8.661
 1088W        W 8397   4.190   9.848   8.935
 1089W        W 8398   4.508   0.303   0.749
 1090W        W 8399   1.846   9.526   7.577
 1091W        W 8400   8.736   4.441   7.613
 1092W        W 8401   0.622   9.366   9.330
 1093W        W 8402   2.503   5.564   8.927
 1094W        W 8403  14.842   9.697   7.421
 1095W        W 8404  19.140   5.140   8.710
 1096W        W 8405   9.883   6.969   6.817
 1097W        W 8406   0.214   3.990   8.424
 1098W        W 8407   8.064   3.576   7.575
 1099W        W 8408  13.528   0.081   0.022
 1100W        W 8409  11.903   5.489   6.576
 1101W        W 8410  13.536   3.117   8.367
 1102W        W 8411  19.951   4.329   8.161
 1103W        W 8412  11.099   7.917   9.325
 1104W        W 8413  14.568   4.258   0.534
 1105W        W 8414   4.169   2.549   7.179
 1106W        W 8415  12.442   6.339   6.790
 1107W        W 8416   0.912   8.932   0.074
 1108W        W 8417  13.482   4.470   9.615
 1109W        W 8418  11.525   3.750   9.267
 1110W        W 8419  10.738   1.240   9.353
 1111W        W 8420  10.491   1.146   0.366
 1112W        W 8421  10.742   8.086   7.045
 1113W        W 8422  10.095   0.597   7.245
 1114W        W 8423  18.246   6.305   0.345
 1115W        W 8424  18.785   8.189   7.181
 1116W        W 8425   4.767   7.090   0.290
 1117W        W 8426  19.571   9.415   0.209
 1118W        W 8427  11.216   1.148   0.041
 1119W        W 8428   0.915   9.371   9.775
 1120W        W 8429   5.109   4.913   7.843
 1121W        W 8430   5.488   4.448   7.473
 1122W        W 8431  10.256   4.708   9.843
 1123W        W 8432   5.262   0.567   9.610
 1124W        W 8433   2.135   2.180   8.054
 1125W        W 8434  13.156   7.856   9.897
 1126W        W 8435   9.691   4.965   6.889
 1127W        W 8436  14.814   4.673   0.750
 1128W        W 8437   2.442   4.220   9.500
 1129W        W 8438   1.389   4.898   8.230
 1130W        W 8439  12.888   2.715   9.883
 1131W        W 8440  11.011   3.711   9.022
 1132W        W 8441   6.399   6.664   6.518
 1133W        W 8442   5.135   2.707   8.609
 1134W        W 8443   2.842   2.394   7.548
 1135W        W 8444   1.598   0.279   6.899
 1136W        W 8445  17.818   1.820   7.187
 1137W        W 8446  17.824   3.085   1.039
 1138W        W 8447  14.787   8.285   0.677
 1139W        W 8448  13.770   6.571   0.839
 1140W        W 8449   8.836   3.152   8.449
 1141W        W 8450   5.018   6.494   6.989
 1142W        W 8451  16.491   2.227   8.123
 1143W        W 8452  16.226   6.221   9.704
 1144W        W 8453  18.150   8.325   8.487
 1145W        W 8454  15.170   5.535   8.314
 1146W        W 8455   0.343   7.680   8.445
 1147W        W 8456   5.344   8.052   7.987
 1148W        W 8457  18.622   2.562   6.748
 1149W        W 8458   8.494   1.592   0.615
 1150W        W 8459   9.865   9.815   8.426
 1151W        W 8460   7.112   7.030   7.157
 1152W        W 8461  19.624   0.877   7.816
 1153W        W 8462  17.765   4.272   7.224
 1154W        W 8463   5.659   6.114   0.120
 1155W        W 8464  13.850   9.789   9.451
 1156W        W 8465  16.769   9.581   0.440
 1157W        W 8466   4.274   7.933   7.432
 1158W        W 8467   4.481   2.983   6.245
 1159W        W 8468   8.500   7.994   8.622
 1160W        W 8469  17.101   9.866   8.865
 1161W        W 8470   8.441   8.307   0.770
 1162W        W 8471   5.574   4.250   6.485
 1163W        W 8472  17.168   0.191   6.677
 1164W        W 8473  18.350   9.317   8.515
 1165W        W 8474  10.231   7.077   7.188
 1166W        W 8475   7.874   2.110   9.332
 1167W        W 8476  15.741   3.441   9.634
 1168W        W 8477   1.829   3.947   0.175
 1169W        W 8478   5.532   5.755   7.459
 1170W        W 8479   9.168   3.376   6.794
 1171W        W 8480  14.186   7.512   7.394
 1172W        W 8481   9.408   7.735   9.979
 1173W        W 8482  18.987   9.075   6.360
 1174W        W 8483  17.213   3.838   7.589
 1175W        W 8484   6.945   0.368   7.114
 1176W        W 8485   6.468   4.712   0.194
 1177W        W 8486  13.413   4.907   9.307
 1178W        W 8487   9.167   9.257   6.950
 1179W        W 8488   9.740   7.297   0.533
 1180W        W 8489   8.266   4.579   7.999
 1181W        W 8490  18.798   7.417   0.531
 1182W        W 8491  18.211   4.805   6.390
 1183W        W 8492   8.120   1.856   7.846
 1184W        W 8493  16.332   9.162   0.398
 1185W        W 8494  18.207   1.613   7.907
 1186W        W 8495  14.113   5.035   6.572
 1187W        W 8496  14.109   6.664   7.061
 1188W        W 8497  12.652   8.397   9.567
 1189W        W 8498  13.362   3.213   0.950
 1190W        W 8499  10.252   5.783   8.719
 1191W        W 8500  12.581   9.347   8.358
 1192W        W 8501  13.964   0.553   6.012
 1193W        W 8502  13.862   4.559   6.523
 1194W        W 8503  11.133   7.648   6.298
 1195W        W 8504   2.503   6.412   9.307
 1196W        W 8505  10.091   2.182   8.384
 1197W        W 8506  13.464   7.094   6.362
 1198W        W 8507  17.263   3.911   8.539
 1199W        W 8508  13.881   8.098   7.921
 1200W        W 8509  15.716   2.750   6.694
 1201W        W 8510  19.483   4.597   6.925
 1202W        W 8511   5.098   5.509   9.494
 1203W        W 8512  17.338   3.362   7.799
 1204W        W 8513  14.845   9.051   9.303
 1205W        W 8514   4.322   7.997   9.511
 1206W        W 8515   3.268   6.684   6.612
 1207W        W 8516   1.896   5.303   0.335
 1208W        W 8517   4.307   2.763   9.101
 1209W        W 8518  16.876   0.700   8.776
 1210W        W 8519   3.210   7.950   9.669
 1211W        W 8520  19.584   7.038   8.439
 1212W        W 8521  19.888   9.478   7.284
 1213W        W 8522  10.694   9.260   8.887
 1214W        W 8523  14.201   4.206   6.217
 1215W        W 8524  16.945   2.501   8.658
 1216W        W 8525   9.758   1.150   6.631
 1217W        W 8526   6.822   2.560   0.727
 1218W        W 8527  15.874   3.773   0.031
 1219W        W 8528  16.170   2.736   5.932
 1220W        W 8529  17.326   2.527   6.301
 1221W        W 8530   3.553   3.075   7.054
 1222W        W 8531  17.202   5.447   0.185
 1223W        W 8532  12.674   1.643   7.881
 1224W        W 8533  16.973   9.784   8.351
 1225W        W 8534  19.634   3.475   6.391
 1226W        W 8535   1.713   3.442   0.075
 1227W        W 8536   1.217   3.513   6.492
 1228W        W 8537   7.547   6.379   8.566
 1229W        W 8538   6.618   9.564   9.585
 1230W        W 8539   9.258   4.809   7.887
 1231W        W 8540  15.151   3.657   7.104
 1232W        W 8541   8.753   4.669   8.874
 1233W        W 8542  10.356   4.473   8.986
 1234W        W 8543  19.166   9.165   8.519
 1235W        W 8544   9.862   9.287   9.310
 1236W        W 8545  15.818   2.261   6.456
 1237W        W 8546   3.729   9.340   0.945
 1238W        W 8547   7.980   4.461   8.424
 1239W        W 8548   6.153   1.503   0.778
 1240W        W 8549  18.857   5.610   7.980
 1241W        W 8550   0.907   6.043   6.522
 1242W        W 8551  18.821   4.698   9.580
 1243W        W 8552  11.364   0.400   6.982
 1244W        W 8553  11.167   9.905   7.139
 1245W        W 8554  11.283   2.091   0.414
 1246W        W 8555   0.501   2.826   8.773
 1247W        W 8556   1.223   8.549   6.141
 1248W        W 8557   3.318   2.617   9.196
 1249W        W 8558   4.607   6.949   9.730
 1250W        W 8559   4.793   5.272   7.663
 1251W        W 8560   5.658   7.429   7.436
 1252W        W 8561   8.268   4.027   8.420
 1253W        W 8562   3.109   2.738   9.665
 1254W        W 8563  17.919   7.188   7.163
 1255W        W 8564   2.519   4.473   0.307
 1256W        W 8565   8.100   2.357   7.937
 1257W        W 8566   9.484   5.452   5.746
 1258W        W 8567   3.669   4.612   6.790
 1259W        W 8568  12.407   3.326   7.182
 1260W        W 8569   0.102   2.780   9.901
 1261W        W 8570   6.070   0.567   0.075
 1262W        W 8571   7.490   9.722   7.618
 1263W        W 8572   2.980   0.181   6.777
 1264W        W 8573  18.833   1.269   7.455
 1265W        W 8574  16.376   3.246   6.687
 1266W        W 8575  16.091   8.086   7.774
 1267W        W 8576   3.989   6.365   9.427
 1268W        W 8577  10.570   3.682   8.203
 1269W        W 8578  11.804   7.404   8.907
 1270W        W 8579   4.053   3.044   7.095
 1271W        W 8580   3.366   3.886   8.686
 1272W        W 8581   1.754   5.996   8.354
 1273W        W 8582  19.378   6.506   7.779
 1274W        W 8583   9.063   3.759   9.683
 1275W        W 8584   4.004   5.645   7.554
 1276W        W 8585   4.005   4.252   7.747
 1277W        W 8586   6.145   7.026   0.196
 1278W        W 8587  18.200   4.204   9.427
 1279W        W 8588  15.940   4.330   8.816
 1280W        W 8589   9.068   9.044   9.736
 1281W        W 8590   3.282   5.650   5.770
 1282W        W 8591   2.820   9.344   7.851
 1283W        W 8592  14.343   2.467   7.031
 1284W        W 8593   6.521   1.690   6.983
 1285W        W 8594  17.081   4.822   0.780
 1286W        W 8595  19.497   1.320   8.564
 1287W        W 8596  19.893   1.081   8.800
 1288W        W 8597  12.792   5.869   6.103
 1289W        W 8598  16.108   6.730   8.126
 1290W        W 8599   2.276   7.076   6.205
 1291W        W 8600   4.942   4.580   0.689
 1292W        W 8601  12.687   5.217   7.346
 1293W        W 8602  11.916   4.860   9.474
 1294W        W 8603   9.905   1.015   1.031
 1295W        W 8604  14.524   8.943   0.169
 1296W        W 8605   2.293   3.646   7.013
 1297W        W 8606  12.260   2.199   0.735
 1298W        W 8607   9.755   2.459   8.668
 1299W        W 8608   5.817   8.402   0.157
 1300W        W 8609   1.995   0.340   7.764
 1301W        W 8610  12.264   3.944   9.990
 1302W        W 8611   8.005   9.012   9.709
 1303W        W 8612  12.005   2.998   9.695
 1304W        W 8613   6.291   2.626   7.099
 1305W        W 8614   9.587   2.714   0.265
 1306W        W 8615   0.455   2.182   9.314
 1307W        W 8616   8.007   7.530   0.919
 1308W        W 8617  18.217   7.094   6.735
 1309W        W 8618  17.170   3.439   9.449
 1310W        W 8619   9.150   4.977   0.203
 1311W        W 8620   1.136   2.798   0.560
 1312W        W 8621  19.221   4.220   8.901
 1313W        W 8622  12.117   9.798   6.771
 1314W        W 8623  18.906   3.159   0.428
 1315W        W 8624   3.468   7.910   8.388
 1316W        W 8625  12.649   1.133   8.392
 1317W        W 8626   0.873   3.526   7.524
 1318W        W 8627  19.335   2.084   6.085
 1319W        W 8628  11.255   4.815   7.549
 1320W        W 8629   9.164   8.134   9.725
 1321W        W 8630  18.135   0.735   7.941
 1322W        W 8631   2.786   7.013   7.547
 1323W        W 8632   9.775   6.457   7.669
 1324W        W 8633   1.330   2.759   9.800
 1325W        W 8634  12.710   8.215   6.619
 1326W        W 8635  13.782   3.099   7.405
 1327W        W 8636  14.784   1.129   7.966
 1328W        W 8637   8.941   7.460   5.966
 1329W        W 8638   0.752   5.782   0.703
 1330W        W 8639  17.003   0.326   6.214
 1331W        W 8640   9.013   0.285   7.263
 1332W        W 8641  11.419   0.756   8.920
 1333W        W 8642  13.621   2.725   7.115
 1334W        W 8643  19.423   1.203   6.657
 1335W        W 8644   0.861   8.942   8.304
 1336W        W 8645  17.218   6.407   9.780
 1337W        W 8646  10.466   6.707   8.967
 1338W        W 8647  11.083   8.653   6.532
 1339W        W 8648   2.911   7.731   8.406
 1340W        W 8649  15.386   1.851   9.022
 1341W        W 8650  14.912   7.900   6.917
 1342W        W 8651  13.158   0.234   7.045
 1343W        W 8652  15.272   7.780   9.671
 1344W        W 8653  14.295   3.249   7.899
 1345W        W 8654   8.603   7.706   0.077
 1346W        W 8655  15.980   4.094   6.419
 1347W        W 8656  15.133   6.465   6.547
 1348W        W 8657  15.310   6.037   6.339
 1349W        W 8658   2.787   5.957   9.214
 1350W        W 8659  10.847   1.369   8.388
 1351W        W 8660   5.355   8.554   0.303
 1352W        W 8661   4.129   8.938   9.842
 1353W        W 8662   1.506   1.679   7.812
 1354W        W 8663   9.921   6.661   8.979
 1355W        W 8664   6.240   8.023   6.392
 1356W        W 8665  14.784   2.769   7.136
 1357W        W 8666  14.594   5.126   9.688
 1358W        W 8667  14.513   8.518   6.894
 1359W        W 8668   5.095   1.261   0.049
 1360W        W 8669  15.241   2.797   6.910
 1361W        W 8670  19.364   2.970   6.515
 1362W        W 8671   7.950   9.812   9.399
 1363W        W 8672   1.628   0.719   6.552
 1364W        W 8673  16.425   5.029   6.071
 1365W        W 8674   6.588   9.272   0.740
 1366W        W 8675   6.993   0.883   7.076
 1367W        W 8676   2.470   6.767   7.072
 1368W        W 8677   3.801   0.223   8.917
 1369W        W 8678   6.923   8.824   9.661
 1370W        W 8679   8.036   3.553   8.404
 1371W        W 8680   9.404   1.176   8.290
 1372W        W 8681  15.413   5.256   9.582
 1373W        W 8682  19.672   2.286   7.648
 1374W        W 8683  16.199   6.392   5.995
 1375W        W 8684   2.929   7.420   8.832
 1376W        W 8685   0.268   2.106   0.641
 1377W        W 8686   3.020   6.390   9.332
 1378W        W 8687  12.243   1.287   9.119
 1379W        W 8688   7.159   2.808   6.813
 1380W        W 8689   3.309   1.068   8.054
 1381W        W 8690   3.142   5.555   0.627
 1382W        W 8691   2.592   4.096   6.977
 1383W        W 8692   4.055   7.358   8.005
 1384W        W 8693   3.820   6.111   7.552
 1385W        W 8694  14.411   9.844   7.655
 1386W        W 8695   5.979   3.600   7.400
 1387W        W 8696   1.326   7.592   8.897
 1388W        W 8697  19.909   6.358   7.592
 1389W        W 8698   8.034   1.175   7.218
 1390W        W 8699  16.929   8.207   9.110
 1391W        W 8700  15.731   5.659   9.815
 1392W        W 8701  13.093   4.678   8.314
 1393W        W 8702  18.221   6.060   6.498
 1394W        W 8703  11.547   2.542   9.151
 1395W        W 8704   3.841   0.798   0.527
 1396W        W 8705   0.021   6.765   8.377
 1397W        W 8706  18.179   9.113   8.054
 1398W        W 8707  10.126   6.184   7.342
 1399W        W 8708  19.957   7.727   9.333
 1400W        W 8709   8.520   2.074   6.195
 1401W        W 8710   9.625   5.409   7.107
 1402W        W 8711   1.334   8.810   0.665
 1403W        W 8712  14.103   7.634   0.595
 1404W        W 8713   3.112   6.688   8.915
 1405W        W 8714  16.652   5.940   9.058
 1406W        W 8715  10.721   1.190   8.860
 1407W        W 8716  10.548   4.565   9.448
 1408W        W 8717   5.409   4.147   8.974
 1409W        W 8718   2.986   5.503   9.073
 1410W        W 8719   9.919   3.743   9.623
 1411W        W 8720  10.723   2.908   0.125
 1412W        W 8721  14.089   1.195   9.730
 1413W        W 8722   9.535   5.617   7.834
 1414W        W 8723   8.117   6.511   8.022
 1415W        W 8724  19.431   6.032   0.784
 1416W        W 8725   3.391   0.324   7.128
 1417W        W 8726   1.861   0.327   6.338
 1418W        W 8727  16.734   8.843   8.076
 1419W        W 8728  19.480   8.651   0.130
 1420W        W 8729   7.745   4.618   8.857
 1421W        W 8730   9.117   8.647   6.616
 1422W        W 8731  10.638   0.558   7.785
 1423W        W 8732   2.342   2.210   7.604
 1424W        W 8733  19.142   6.559   8.722
 1425W        W 8734  11.585   4.766   0.801
 1426W        W 8735  14.883   0.902   8.424
 1427W        W 8736  18.414   3.064   9.691
 1428W        W 8737  15.956   8.417   8.149
 1429W        W 8738   8.562   3.077   7.127
 1430W        W 8739  15.352   7.868   8.289
 1431W        W 8740  10.518   9.745   8.329
 1432W        W 8741  12.647   0.685   8.652
 1433W        W 8742   6.453   6.853   8.352
 1434W        W 8743   8.440   5.168   8.034
 1435W        W 8744  19.670   0.586   8.853
 1436W        W 8745   7.778   2.165   6.646
 1437W        W 8746  13.981   0.606   7.894
 1438W        W 8747   2.810   5.551   7.533
 1439W        W 8748  17.437   4.130   6.839
 1440W        W 8749  13.792   8.865   8.965
 1441W        W 8750  10.369   7.006   6.683
 1442W        W 8751   3.954   7.306   8.853
 1443W        W 8752   9.943   3.683   1.134
 1444W        W 8753  12.974   9.002   7.925
 1445W        W 8754  13.666   8.421   0.635
 1446W        W 8755  19.641   6.539   8.647
 1447W        W 8756  12.385   2.678   8.637
 1448W        W 8757  15.535   8.385   6.494
 1449W        W 8758  12.456   3.132   6.263
 1450W        W 8759   8.109   7.702   0.257
 1451W        W 8760   1.247   2.267   0.533
 1452W        W 8761   4.645   2.130   9.048
 1453W        W 8762   6.895   4.173   6.144
 1454W        W 8763   4.920   8.629   8.976
 1455W        W 8764  12.791   2.284   0.149
 1456W        W 8765   3.555   8.425   8.411
 1457W        W 8766  10.175   9.688   7.469
 1458W        W 8767   5.183   1.793   8.307
 1459W        W 8768   2.155   9.468   5.883
 1460W        W 8769   5.452   4.543   7.979
 1461W        W 8770  16.624   9.691   9.010
 1462W        W 8771   3.692   7.272   0.162
 1463W        W 8772  10.044   3.874   0.132
 1464W        W 8773  15.703   0.605   9.610
 1465W        W 8774  10.495   1.557   6.299
 1466W        W 8775   3.940   4.046   6.866
 1467W        W 8776  10.102   3.673   0.625
 1468W        W 8777  12.286   4.886   0.441
 1469W        W 8778  10.165   3.352   7.696
 1470W        W 8779  17.555   4.638   0.699
 1471W        W 8780   5.421   5.666   9.898
 1472W        W 8781   7.086   0.481   0.278
 1473W        W 8782  18.676   9.540   7.061
 1474W        W 8783   8.085   2.627   8.364
 1475W        W 8784  13.879   7.846   8.404
 1476W        W 8785  19.290   8.741   6.142
 1477W        W 8786   8.036   4.909   7.307
 1478W        W 8787   8.535   7.064   7.225
 1479W        W 8788   6.737   3.703   6.437
 1480W        W 8789   4.596   5.405   9.511
 1481W        W 8790  11.618   9.012   6.616
 1482W        W 8791  14.557   1.715   8.233
 1483W        W 8792  16.984   4.688   7.032
 1484W        W 8793  17.805   5.618   7.893
 1485W        W 8794   6.295   2.155   6.897
 1486W        W 8795   7.156   4.387   9.729
 1487W        W 8796   3.616   0.668   9.679
 1488W        W 8797  19.439   5.531   6.751
 1489W        W 8798  15.573   7.182   7.569
 1490W        W 8799   8.161   7.197   8.426
 1491W        W 8800  17.846   2.693   8.181
 1492W        W 8801   4.386   7.878   8.301
 1493W        W 8802   4.805   8.120   9.617
 1494W        W 8803  15.556   0.247   0.971
 1495W        W 8804   9.999   9.225   7.649
 1496W        W 8805   3.055   8.250   7.687
 1497W        W 8806   1.787   7.071   0.446
 1498W        W 8807  14.277   1.180   6.707
 1499W        W 8808   3.358   2.628   7.205
 1500W        W 8809  17.891   0.808   6.930
 1501W        W 8810  15.510   6.611   9.449
 1502W        W 8811  18.255   6.427   8.722
 1503W        W 8812  17.935   3.713   8.359
 1504W        W 8813   9.438   2.231   0.399
 1505W        W 8814   1.642   2.955   9.451
 1506W        W 8815   6.624   1.227   9.128
 1507W        W 8816   9.596   7.716   6.755
 1508W        W 8817  10.528   1.421   7.686
 1509W        W 8818  17.074   7.579   8.440
 1510W        W 8819   4.456   0.185   7.381
 1511W        W 8820  15.389   0.334   9.969
 1512W        W 8821   9.623   3.317   9.686
 1513W        W 8822  17.399   2.583   8.416
 1514W        W 8823   5.184   6.201   7.829
 1515W        W 8824  15.302   3.259   9.026
 1516W        W 8825   3.972   8.143   8.419
 1517W        W 8826   4.393   8.401   9.842
 1518W        W 8827  10.098   4.223   6.605
 1519W        W 8828   3.970   8.894   6.219
 1520W        W 8829  11.214   2.819   8.030
 1521W        W 8830   2.205   3.596   0.267
 1522W        W 8831  19.159   5.476   9.095
 1523W        W 8832  10.560   0.660   0.601
 1524W        W 8833  17.030   2.922   7.885
 1525W        W 8834   9.308   7.378   7.571
 1526W        W 8835  17.360   2.127   8.172
 1527W        W 8836  12.949   2.732   0.400
 1528W        W 8837   4.138   8.623   9.437
 1529W        W 8838  10.482   3.867   6.560
 1530W        W 8839  18.286   7.554   8.883
 1531W        W 8840  12.405   2.659   9.669
 1532W        W 8841   5.394   2.977   9.789
 1533W        W 8842   1.860   4.913   8.440
 1534W        W 8843   1.186   7.290   6.979
 1535W        W 8844   2.100   5.047   7.656
 1536W        W 8845   0.554   8.855   7.388
 1537W        W 8846  14.082   4.291   7.417
 1538W        W 8847  10.005   3.812   6.320
 1539W        W 8848  15.005   0.207   6.707
 1540W        W 8849   5.607   4.024   0.943
 1541W        W 8850  13.851   6.788   6.225
 1542W        W 8851  12.326   7.116   6.404
 1543W        W 8852   8.736   1.032   8.919
 1544W        W 8853   9.034   5.792   7.698
 1545W        W 8854   8.646   2.611   0.328
 1546W        W 8855   6.829   2.155   9.346
 1547W        W 8856   7.817   6.618   7.625
 1548W        W 8857  19.085   7.856   9.732
 1549W        W 8858   5.028   8.986   9.852
 1550W        W 8859   3.392   6.826   0.144
 1551W        W 8860  13.929   1.512   6.910
 1552W        W 8861   3.574   2.132   0.541
 1553W        W 8862   6.079   6.906   8.015
 1554W        W 8863  11.032   7.168   6.086
 1555W        W 8864  12.552   3.143   0.932
 1556W        W 8865  18.920   6.946   9.768
 1557W        W 8866  14.011   4.440   8.849
 1558W        W 8867  14.433   0.777   7.675
 1559W        W 8868   3.498   8.054   7.888
 1560W        W 8869   1.988   8.854   0.026
 1561W        W 8870  14.579   5.512   7.528
 1562W        W 8871   3.678   9.214   7.408
 1563W        W 8872   3.054   1.410   6.985
 1564W        W 8873  10.384   7.189   0.440
 1565W        W 8874   8.305   3.725   7.994
 1566W        W 8875  16.960   2.180   6.360
 1567W        W 8876  14.561   5.079   6.332
 1568W        W 8877  19.114   1.985   9.232
 1569W        W 8878  18.580   9.559   9.889
 1570W        W 8879   9.516   6.761   0.960
 1571W        W 8880   4.969   0.907   8.091
 1572W        W 8881  15.522   2.733   7.885
 1573W        W 8882   2.266   5.119   8.159
 1574W        W 8883  14.911   5.931   9.208
 1575W        W 8884  19.847   8.949   8.258
 1576W        W 8885   1.670   6.657   6.324
 1577W        W 8886   2.547   3.525   9.689
 1578W        W 8887  15.872   3.031   9.892
 1579W        W 8888   9.698   1.278   9.250
 1580W        W 8889  15.095   2.713   8.176
 1581W        W 8890   3.401   5.690   8.802
 1582W        W 8891  14.076   2.966   9.175
 1583W        W 8892   7.625   9.997   8.055
 1584W        W 8893  19.366   0.752   9.296
 1585W        W 8894   7.395   7.395   7.384
 1586W        W 8895   6.111   6.935   9.694
 1587W        W 8896   9.573   7.769   7.752
 1588W        W 8897  19.102   6.511   0.096
 1589W        W 8898   2.954   2.783   8.842
 1590W        W 8899  17.823   2.647   9.730
 1591W        W 8900  15.683   5.480   0.800
 1592W        W 8901  18.958   9.705   9.557
 1593W        W 8902   1.186   7.978   0.697
 1594W        W 8903  19.623   7.825   9.757
 1595W        W 8904  15.460   9.218   0.471
 1596W        W 8905   8.545   6.859   0.168
 1597W        W 8906   8.272   3.717   8.845
 1598W        W 8907   2.727   3.228   8.735
 1599W        W 8908   0.555   4.856   7.460
 1600W        W 8909  16.613   6.549   0.620
 1601W        W 8910   1.992   2.640   0.514
 1602W        W 8911   8.032   4.127   0.600
 1603W        W 8912  18.681   8.303   0.401
 1604W        W 8913   2.106   9.558   6.571
 1605W        W 8914  19.189   1.517   0.487
 1606W        W 8915   6.157   5.022   6.471
 1607W        W 8916  10.298   8.945   6.865
 1608W        W 8917  17.654   3.561   0.458
 1609W        W 8918   3.254   4.982   7.901
 1610W        W 8919   0.213   9.674   0.688
 1611W        W 8920   0.161   0.675   7.087
 1612W        W 8921  10.287   4.725   5.870
 1613W        W 8922   5.738   0.773   0.679
 1614W        W 8923   7.173   7.487   9.268
 1615W        W 8924  10.131   7.674   8.883
 1616W        W 8925  18.433   0.024   0.079
 1617W        W 8926  18.907   6.333   9.111
 1618W        W 8927  13.354   6.473   9.685
 1619W        W 8928   7.627   5.100   0.160
 1620W        W 8929  14.372   7.222   6.828
 1621W        W 8930  18.257   2.520   7.921
 1622W        W 8931  18.703   6.122   6.351
 1623W        W 8932   6.785   0.292   6.280
 1624W        W 8933  17.799   1.366   0.542
 1625W        W 8934   2.526   5.884   0.373
 1626W        W 8935  19.064   1.144   0.805
 1627W        W 8936   9.143   8.685   0.134
 1628W        W 8937   8.028   7.715   9.751
 1629W        W 8938   5.699   2.608   0.011
 1630W        W 8939  10.266   9.876   6.445
 1631W        W 8940   0.994   0.555   7.649
 1632W        W 8941  13.397   9.356   7.318
 1633W        W 8942  14.793   9.644   8.471
 1634W        W 8943  12.608   2.525   6.885
 1635W        W 8944  13.661   4.036   9.838
 1636W        W 8945  18.624   9.363   9.408
 1637W        W 8946  19.135   0.436   0.225
 1638W        W 8947   5.584   4.920   7.628
 1639W        W 8948  11.154   0.639   7.387
 1640W        W 8949   3.154   2.343   6.317
 1641W        W 8950   5.458   5.427   8.443
 1642W        W 8951  16.995   4.986   0.283
 1643W        W 8952  13.847   9.335   9.191
 1644W        W 8953  13.165   2.095   7.365
 1645W        W 8954   0.459   1.146   9.616
 1646W        W 8955  19.029   4.587   0.390
 1647W        W 8956  11.532   2.186   8.312
 1648W        W 8957   6.272   5.049   9.637
 1649W        W 8958  18.655   8.336   9.367
 1650W        W 8959   6.141   4.459   9.890
 1651W        W 8960  14.328   8.131   6.615
 1652W        W 8961  15.387   7.298   9.820
 1653W        W 8962   8.563   8.504   8.645
 1654W        W 8963   3.794   4.049   9.497
 1655W        W 8964   1.603   4.074   7.338
 1656W        W 8965  10.181   7.031   9.253
 1657W        W 8966   3.934   4.964   7.104
 1658W        W 8967   8.345   9.709   6.932
 1659W        W 8968   7.768   3.039   9.209
 1660W        W 8969   5.849   7.293   8.357
 1661W        W 8970   5.535   1.256   7.982
 1662W        W 8971  10.579   3.224   7.971
 1663W        W 8972  14.077   8.605   6.627
 1664W        W 8973  15.188   6.832   9.780
 1665W        W 8974  15.022   3.519   8.667
 1666W        W 8975  18.309   7.368   0.359
 1667W        W 8976  12.068   0.188   0.725
 1668W        W 8977  15.450   0.207   6.415
 1669W        W 8978  19.414   9.146   9.017
 1670W        W 8979   6.129   5.810   0.701
 1671W        W 8980  17.210   1.749   1.079
 1672W        W 8981   7.820   8.876   9.252
 1673W        W 8982   9.323   0.983   7.797
 1674W        W 8983  11.879   1.781   7.506
 1675W        W 8984   3.302   9.394   9.707
 1676W        W 8985  12.262   2.215   0.197
 1677W        W 8986  18.640   7.220   9.082
 1678W        W 8987   7.642   1.660   6.530
 1679W        W 8988  13.853   9.808   1.013
 1680W        W 8989  16.330   7.897   0.433
 1681W        W 8990   3.140   9.858   6.043
 1682W        W 8991  12.968   0.712   7.311
 1683W        W 8992   7.322   6.652   7.508
 1684W        W 8993  19.838   7.497   8.579
 1685W        W 8994   3.076   6.208   6.534
 1686W        W 8995   5.303   6.406   9.634
 1687W        W 8996   3.080   8.452   6.249
 1688W        W 8997  19.112   3.859   7.940
 1689W        W 8998   3.865   0.897   7.012
 1690W        W 8999   3.317   5.421   7.653
 1691W        W 9000  19.548   4.195   9.731
 1692W        W 9001   0.828   3.891   0.288
 1693W        W 9002   2.244   6.021   8.134
 1694W        W 9003  10.200   7.325   9.702
 1695W        W 9004   4.051   4.527   0.254
 1696W        W 9005  13.969   4.901   8.570
 1697W        W 9006  13.782   0.945   0.538
 1698W        W 9007  17.217   4.897   8.612
 1699W        W 9008  14.621   2.194   8.465
 1700W        W 9009  19.965   2.626   6.268
 1701W        W 9010  10.573   3.313   9.832
 1702W        W 9011  11.396   7.178   0.360
 1703W        W 9012  15.534   4.651   8.437
 1704W        W 9013   1.316   2.754   7.378
 1705W        W 9014  17.054   3.776   7.088
 1706W        W 9015  13.492   8.478   6.791
 1707W        W 9016   4.282   8.026   6.609
 1708W        W 9017   0.012   6.244   7.082
 1709W        W 9018  15.067   7.877   0.786
 1710W        W 9019  12.504   4.747   7.604
 1711W        W 9020  11.691   9.554   7.992
 1712W        W 9021  11.002   8.126   6.446
 1713W        W 9022  11.699   5.199   7.514
 1714W        W 9023  12.103   2.645   7.647
 1715W        W 9024   2.663   0.088   0.335
 1716W        W 9025  18.557   6.384   7.224
 1717W        W 9026   1.605   6.724   7.974
 1718W        W 9027  16.639   5.721   0.855
 1719W        W 9028   1.992   2.216   7.208
 1720W        W 9029  18.656   4.452   8.326
 1721W        W 9030   8.803   7.425   7.491
 1722W        W 9031   4.115   6.785   9.703
 1723W        W 9032  15.172   2.401   7.251
 1724W        W 9033  11.507   6.331   6.241
 1725W        W 9034   4.845   3.565   7.858
 1726W        W 9035  13.570   7.415   8.414
 1727W        W 9036  13.873   6.104   0.671
 1728W        W 9037   1.793   8.927   0.483
 1729W        W 9038   4.680   2.708   7.799
 1730W        W 9039   7.031   8.053   8.396
 1731W        W 9040  11.653   5.123   9.850
 1732W        W 9041  11.766   4.255   7.121
 1733W        W 9042   1.870   4.540   7.435
 1734W        W 9043   0.984   2.133   7.267
 1735W        W 9044  19.559   6.441   6.703
 1736W        W 9045   0.392   5.006   8.367
 1737W        W 9046   4.870   0.429   8.791
 1738W        W 9047  14.441   0.226   0.480
 1739W        W 9048   2.891   4.617   8.531
 1740W        W 9049   5.041   3.879   9.249
 1741W        W 9050  16.069   2.589   9.140
 1742W        W 9051   6.233   0.112   0.237
 1743W        W 9052  12.469   7.404   7.842
 1744W        W 9053  15.102   1.029   6.682
 1745W        W 9054  19.777   3.585   9.251
 1746W        W 9055   7.865   2.772   8.795
 1747W        W 9056  19.922   3.553   8.515
 1748W        W 9057  16.353   4.003   6.057
 1749W        W 9058  11.194   7.412   9.472
 1750W        W 9059   8.122   2.523   9.151
 1751W        W 9060   4.411   6.728   0.140
 1752W        W 9061  14.433   0.251   9.984
 1753W        W 9062  14.170   1.829   7.924
 1754W        W 9063   5.226   6.814   6.442
 1755W        W 9064   6.572   8.832   8.009
 1756W        W 9065   2.150   0.669   9.268
 1757W        W 9066   1.781   2.234   7.689
 1758W        W 9067  15.262   0.810   9.736
 1759W        W 9068  17.901   3.110   8.970
 1760W        W 9069   2.337   1.835   9.756
 1761W        W 9070   2.815   7.546   7.511
 1762W        W 9071   5.984   0.090   6.460
 1763W        W 9072   1.900   1.134   8.421
 1764W        W 9073   4.161   4.663   6.642
 1765W        W 9074  15.219   9.694   8.769
 1766W        W 9075   8.998   7.681   0.917
 1767W        W 9076   3.504   3.752   0.822
 1768W        W 9077   1.134   3.073   6.725
 1769W        W 9078   1.560   5.981   0.598
 1770W        W 9079   7.632   4.082   7.590
 1771W        W 9080   0.652   4.051   0.746
 1772W        W 9081  17.567   6.009   9.012
 1773W        W 9082   8.321   0.818   7.536
 1774W        W 9083   9.298   1.649   9.089
 1775W        W 9084  14.704   5.318   8.398
 1776W        W 9085  12.108   7.994   7.239
 1777W        W 9086   5.525   2.570   8.324
 1778W        W 9087   7.345   1.093   6.669
 1779W        W 9088  12.229   2.081   8.819
 1780W        W 9089  10.322   2.528   7.553
 1781W        W 9090  12.177   7.577   9.421
 1782W        W 9091  12.628   6.913   7.895
 1783W        W 9092  14.899   7.154   0.091
 1784W        W 9093  17.285   1.225   8.200
 1785W        W 9094   5.417   7.327   8.734
 1786W        W 9095  11.840   2.510   6.272
 1787W        W 9096  19.127   6.454   0.779
 1788W        W 9097  16.417   1.758   8.421
 1789W        W 9098   4.271   5.894   0.394
 1790W        W 9099   5.684   9.700   9.682
 1791W        W 9100   5.663   6.412   8.675
 1792W        W 9101   1.223   6.413   6.705
 1793W        W 9102  12.185   0.556   8.434
 1794W        W 9103   7.484   4.586   6.682
 1795W        W 9104   8.774   7.007   0.613
 1796W        W 9105   8.513   9.277   8.294
 1797W        W 9106  10.531   6.536   6.481
 1798W        W 9107  16.962   0.825   9.268
 1799W        W 9108   5.353   0.998   8.407
 1800W        W 9109  13.811   7.761   9.239
 1801W        W 9110  15.921   6.353   1.214
 1802W        W 9111  13.671   4.044   9.318
 1803W        W 9112   6.888   3.384   9.203
 1804W        W 9113  19.296   9.614   8.771
 1805W        W 9114   8.301   8.180   0.272
 1806W        W 9115   1.663   4.837   0.249
 1807W        W 9116   7.153   9.863   7.964
 1808W        W 9117  10.016   5.541   8.041
 1809W        W 9118  18.235   8.450   6.688
 1810W        W 9119  19.992   8.610   0.319
 1811W        W 9120  16.333   7.811   7.420
 1812W        W 9121   7.297   1.983   6.269
 1813W        W 9122   4.324   7.614   0.743
 1814W        W 9123  16.487   6.569   9.256
 1815W        W 9124   9.669   4.497   7.778
 1816W        W 9125   7.111   3.067   0.298
 1817W        W 9126  10.411   6.687   0.346
 1818W        W 9127  12.003   7.820   7.724
 1819W        W 9128  17.302   3.642   8.991
 1820W        W 9129   1.570   9.657   8.477
 1821W        W 9130  11.396   3.116   7.364
 1822W        W 9131  10.609   7.502   0.102
 1823W        W 9132   2.069   5.864   7.685
 1824W        W 9133  18.414   6.225   9.162
 1825W        W 9134  15.733   5.754   6.244
 1826W        W 9135   8.500   1.815   8.685
 1827W        W 9136  11.790   4.850   0.262
 1828W        W 9137   9.524   5.445   8.397
 1829W        W 9138   8.482   6.401   9.942
 1830W        W 9139  10.510   5.343   8.785
 1831W        W 9140   1.628   4.982   0.793
 1832W        W 9141   4.807   0.606   9.328
 1833W        W 9142   9.284   9.747   0.888
 1834W        W 9143   7.725   2.523   0.755
 1835W        W 9144   8.629   8.678   6.406
 1836W        W 9145   9.241   4.430   7.521
 1837W        W 9146   1.650   4.649   8.836
 1838W        W 9147  17.628   5.463   8.357
 1839W        W 9148  14.858   8.834   8.605
 1840W        W 9149  17.959   7.805   7.336
 1841W        W 9150  10.444   7.715   0.545
 1842W        W 9151  13.961   4.022   0.759
 1843W        W 9152   1.919   6.670   0.139
 1844W        W 9153   7.153   3.530   9.614
 1845W        W 9154  19.595   6.039   7.848
 1846W        W 9155   6.604   0.925   7.412
 1847W        W 9156  12.525   5.336   9.814
 1848W        W 9157   0.471   5.073   9.260
 1849W        W 9158  19.683   8.985   0.500
 1850W        W 9159  11.619   5.609   9.693
 1851W        W 9160   0.227   9.717   8.655
 1852W        W 9161  11.382   4.327   7.467
 1853W        W 9162  16.850   6.114   7.213
 1854W        W 9163   9.490   0.001   9.740
 1855W        W 9164  10.454   8.449   9.325
 1856W        W 9165  14.440   8.212   9.214
 1857W        W 9166   1.150   4.472   8.531
 1858W        W 9167   6.541   2.996   9.022
 1859W        W 9168   9.172   5.565   9.815
 1860W        W 9169  15.130   2.227   8.346
 1861W        W 9170  16.837   1.279   9.508
 1862W        W 9171  10.432   1.076   0.897
 1863W        W 9172   2.271   5.883   6.762
 1864W        W 9173   0.575   8.526   8.409
 1865W        W 9174   1.543   6.467   0.460
 1866W        W 9175   0.242   5.545   6.366
 1867W        W 9176   0.256   9.716   0.153
 1868W        W 9177   5.307   7.854   8.863
 1869W        W 9178   5.982   7.982   9.394
 1870W        W 9179  12.060   1.581   7.068
 1871W        W 9180   0.936   3.595   6.949
 1872W        W 9181   6.271   3.150   7.349
 1873W        W 9182   6.293   4.779   0.685
 1874W        W 9183   0.690   3.926   9.619
 1875W        W 9184   2.725   9.638   0.078
 1876W        W 9185  18.541   8.670   9.736
 1877W        W 9186   5.078   5.643   7.169
 1878W        W 9187   0.213   1.543   6.165
 1879W        W 9188   9.303   0.065   0.467
 1880W        W 9189   0.070   5.438   9.396
 1881W        W 9190  14.196   2.302   8.775
 1882W        W 9191   8.871   6.237   6.616
 1883W        W 9192  15.061   6.347   9.503
 1884W        W 9193   6.343   0.922   6.543
 1885W        W 9194  12.104   9.756   6.241
 1886W        W 9195   2.389   5.998   8.617
 1887W        W 9196  13.447   1.413   6.837
 1888W        W 9197   6.445   4.209   0.279
 1889W        W 9198   6.347   4.315   0.903
 1890W        W 9199  16.802   6.950   7.833
 1891W        W 9200   9.329   7.265   0.208
 1892W        W 9201   6.758   0.819   9.831
 1893W        W 9202  18.615   6.057   8.730
 1894W        W 9203   5.359   7.446   6.797
 1895W        W 9204   4.970   0.250   9.914
 1896W        W 9205  18.130   5.239   9.306
 1897W        W 9206   8.132   3.227   9.722
 1898W        W 9207   0.198   9.266   5.959
 1899W        W 9208  11.426   3.019   0.944
 1900W        W 9209   4.380   3.302   8.384
 1901W        W 9210   5.150   1.164   7.131
 1902W        W 9211   1.658   8.901   9.632
 1903W        W 9212  17.458   5.512   6.905
 1904W        W 9213   8.146   1.732   0.258
 1905W        W 9214   1.299   4.819   6.131
 1906W        W 9215  10.686   9.922   8.978
 1907W        W 9216  13.597   6.054   8.784
 1908W        W 9217   0.107   9.373   9.336
 1909W        W 9218  19.420   9.824   6.276
 1910W        W 9219  18.106   9.452   9.316
 1911W        W 9220   9.742   9.723   7.156
 1912W        W 9221  19.728   8.210   0.091
 1913W        W 9222   1.278   0.614   9.409
 1914W        W 9223  15.876   4.814   8.024
 1915W        W 9224  16.081   0.008   0.737
 1916W        W 9225  11.849   1.486   9.401
 1917W        W 9226  19.768   5.627   6.167
 1918W        W 9227   7.773   5.583   6.649
 1919W        W 9228  10.953   7.103   8.747
 1920W        W 9229   1.311   1.616   0.244
 1921W        W 9230   1.372   8.173   8.042
 1922W        W 9231  15.410   6.038   9.104
 1923W        W 9232  14.675   7.859   8.924
 1924W        W 9233   5.660   0.835   0.179
 1925W        W 9234  14.104   5.064   7.081
 1926W        W 9235  18.784   0.069   7.158
 1927W        W 9236  10.591   7.982   7.537
 1928W        W 9237  14.840   3.149   7.869
 1929W        W 9238  19.182   6.304   6.219
 1930W        W 9239  16.839   3.870   0.935
 1931W        W 9240  16.316   9.467   6.092
 1932W        W 9241   7.948   7.914   7.356
 1933W        W 9242  11.386   5.101   0.473
 1934W        W 9243  14.307   1.319   7.927
 1935W        W 9244   4.620   9.740   8.160
 1936W        W 9245   0.755   9.296   7.182
 1937W        W 9246  19.826   1.908   0.426
 1938W        W 9247  10.023   5.365   8.526
 1939W        W 9248  19.390   9.898   0.156
 1940W        W 9249  15.029   2.060   9.325
 1941W        W 9250  12.641   3.771   6.359
 1942W        W 9251  13.836   8.848   7.923
 1943W        W 9252   7.800   3.662   9.892
 1944W        W 9253  14.906   0.592   7.508
 1945W        W 9254   6.403   1.763   6.499
 1946W        W 9255   5.669   6.127   7.112
 1947W        W 9256   1.793   1.611   8.229
 1948W        W 9257  19.135   5.657   9.588
 1949W        W 9258  12.086   7.552   8.496
 1950W        W 9259  14.895   9.750   6.899
 1951W        W 9260  17.694   9.566   8.238
 1952W        W 9261  18.158   7.093   9.123
 1953W        W 9262  12.156   5.642   0.469
 1954W        W 9263  17.533   7.751   9.962
 1955W        W 9264  11.956   5.793   9.345
 1956W        W 9265  19.673   0.459   6.976
 1957W        W 9266  13.302   0.566   6.327
 1958W        W 9267   4.061   3.175   9.278
 1959W        W 9268  10.625   3.638   7.679
 1960W        W 9269   1.541   9.125   7.687
 1961W        W 9270  11.795   1.424   0.953
 1962W        W 9271   8.839   4.463   7.083
 1963W        W 9272   9.138   8.757   9.297
 1964W        W 9273  17.259   8.183   9.568
 1965W        W 9274   0.550   2.557   0.660
 1966W        W 9275   3.494   0.703   1.085
 1967W        W 9276  19.793   6.976   0.841
 1968W        W 9277   2.759   0.528   0.571
 1969W        W 9278  14.006   0.692   8.970
 1970W        W 9279  16.575   8.866   7.215
 1971W        W 9280  16.443   3.933   9.172
 1972W        W 9281  17.021   2.897   1.301
 1973W        W 9282   6.988   3.934   9.932
 1974W        W 9283   3.174   7.261   9.258
 1975W        W 9284  19.639   5.635   9.670
 1976W        W 9285  19.776   5.653   8.118
 1977W        W 9286  17.740   8.274   7.340
 1978W        W 9287   1.537   2.081   0.149
 1979W        W 9288  18.440   3.783   6.939
 1980W        W 9289   9.709   3.675   7.681
 1981W        W 9290   3.098   9.777   7.921
 1982W        W 9291  12.589   3.346   6.704
 1983W        W 9292   8.568   4.163   8.008
 1984W        W 9293  16.964   5.328   0.696
 1985W        W 9294   0.359   2.453   6.534
 1986W        W 9295   4.859   7.388   6.935
 1987W        W 9296   9.767   6.240   8.679
 1988W        W 9297  17.974   3.078   9.987
 1989W        W 9298  19.047   1.293   6.351
 1990W        W 9299  17.327   5.921   6.511
 1991W        W 9300  14.089   8.326   8.386
 1992W        W 9301   4.892   7.926   8.209
 1993W        W 9302  17.374   3.908   9.425
 1994W        W 9303  12.225   1.025   8.685
 1995W        W 9304  18.769   7.520   8.705
 1996W        W 9305  10.356   2.841   9.780
 1997W        W 9306  16.094   9.395   8.365
 1998W        W 9307   8.519   7.849   6.667
 1999W        W 9308  13.934   4.477   9.889
 2000W        W 9309   4.768   7.134   8.654
 2001W        W 9310   4.484   1.639   6.051
 2002W        W 9311  19.906   4.101   9.355
 2003W        W 9312   2.700   8.215   9.242
 2004W        W 9313   5.408   6.568   0.104
 2005W        W 9314  17.241   5.254   6.040
 2006W        W 9315   7.346   7.486   7.879
 2007W        W 9316  18.099   9.688   9.866
 2008W        W 9317   0.116   7.171   7.087
 2009W        W 9318  18.672   3.975   6.000
 2010W        W 9319   3.188   9.012   8.906
 2011W        W 9320   8.765   5.416   7.179
 2012W        W 9321  13.694   0.219   6.298
 2013W        W 9322  15.732   6.361   0.362
 2014W        W 9323   3.792   2.775   7.433
 2015W        W 9324   1.505   1.637   1.125
 2016W        W 9325   8.326   5.659   7.036
 2017W        W 9326   7.813   2.791   7.947
 2018W        W 9327  13.355   0.575   9.770
 2019W        W 9328  14.358   8.461   7.387
 2020W        W 9329   6.597   4.907   7.320
 2021W        W 9330   1.952   6.197   6.497
 2022W        W 9331   8.260   3.727   9.691
 2023W        W 9332   7.814   6.131   7.746
 2024W        W 9333  19.984   5.706   8.715
 2025W        W 9334  18.257   7.966   6.530
 2026W        W 9335  19.824   3.306   7.893
 2027W        W 9336  13.058   3.618   0.354
 2028W        W 9337  12.670   0.244   0.654
 2029W        W 9338  12.858   9.300   6.648
 2030W        W 9339  12.426   5.783   9.588
 2031W        W 9340  13.882   4.785   0.732
 2032W        W 9341  13.535   0.170   8.416
 2033W        W 9342  19.465   4.680   7.984
 2034W        W 9343  13.063   1.616   7.099
 2035W        W 9344   2.316   6.883   9.309
 2036W        W 9345  18.575   0.270   9.142
 2037W        W 9346  15.880   8.183   8.604
 2038W        W 9347  15.735   3.611   6.394
 2039W        W 9348   0.576   7.527   0.635
 2040W        W 9349   4.639   8.427   0.388
 2041W        W 9350  16.901   1.259   0.542
 2042W        W 9351   4.194   0.836   0.915
 2043W        W 9352   5.731   8.802   6.101
 2044W        W 9353  14.518   6.950   7.798
 2045W        W 9354  18.800   0.870   8.655
 2046W        W 9355   0.688   7.988   0.850
 2047W        W 9356  13.366   3.598   6.053
 2048W        W 9357   0.855   6.958   8.504
 2049W        W 9358  12.382   9.834   9.049
 2050W        W 9359   6.599   4.900   6.813
 2051W        W 9360  16.997   2.972   8.918
 2052W        W 9361   9.966   6.448   8.245
 2053W        W 9362  19.889   4.101   0.117
 2054W        W 9363  19.672   4.141   7.174
 2055W        W 9364   2.783   2.057   0.542
 2056W        W 9365   8.392   6.112   6.766
 2057W        W 9366  11.511   9.549   6.641
 2058W        W 9367  16.086   8.687   7.182
 2059W        W 9368  10.473   5.204   5.950
 2060W        W 9369   9.204   1.503   7.883
 2061W        W 9370  17.635   3.514   9.944
 2062W        W 9371   3.701   0.228   9.416
 2063W        W 9372   8.768   5.734   6.595
 2064W        W 9373  13.571   8.906   7.492
 2065W        W 9374   1.067   3.952   8.735
 2066W        W 9375  14.353   4.727   0.542
 2067W        W 9376  11.167   2.092   8.652
 2068W        W 9377   3.166   9.356   0.189
 2069W        W 9378   5.387   1.150   0.463
 2070W        W 9379   4.785   5.823   0.349
 2071W        W 9380  14.097   4.092   8.460
 2072W        W 9381  14.660   3.645   7.259
 2073W        W 9382  12.078   1.014   9.511
 2074W        W 9383   6.470   5.183   9.164
 2075W        W 9384   7.259   2.237   9.094
 2076W        W 9385   0.530   4.982   6.434
 2077W        W 9386   1.483   0.432   7.803
 2078W        W 9387  16.969   2.468   7.623
 2079W        W 9388  14.374   0.810   8.171
 2080W        W 9389   1.316   0.296   7.338
 2081W        W 9390  17.478   9.769   6.612
 2082W        W 9391   7.763   0.716   8.577
 2083W        W 9392   0.632   8.934   9.630
 2084W        W 9393   9.915   8.394   9.272
 2085W        W 9394  13.602   4.884   8.207
 2086W        W 9395  13.396   1.660   9.813
 2087W        W 9396   6.595   6.397   8.141
 2088W        W 9397   0.635   8.681   7.910
 2089W        W 9398   4.131   1.346   0.018
 2090W        W 9399   4.921   4.997   9.486
 2091W        W 9400   5.035   5.979   9.769
 2092W        W 9401   0.366   8.416   0.676
 2093W        W 9402  12.388   6.576   9.527
 2094W        W 9403  17.591   8.301   8.537
 2095W        W 9404   4.775   3.033   6.635
 2096W        W 9405   3.442   5.839   7.379
 2097W        W 9406   8.183   3.423   0.664
 2098W        W 9407   8.579   1.309   8.515
 2099W        W 9408  16.795   5.125   6.824
 2100W        W 9409   1.009   2.543   0.143
 2101W        W 9410   0.404   5.550   9.026
 2102W        W 9411   8.874   2.928   6.743
 2103W        W 9412   3.708   5.545   0.711
 2104W        W 9413  19.440   6.489   9.171
 2105W        W 9414  18.696   1.387   0.524
 2106W        W 9415   8.986   7.065   8.757
 2107W        W 9416  11.081   3.257   9.897
 2108W        W 9417  16.555   3.206   0.210
 2109W        W 9418  11.678   4.587   9.825
 2110W        W 9419  15.224   3.363   9.635
 2111W        W 9420  16.904   8.705   0.899
 2112W        W 9421  11.769   8.238   8.968
 2113W        W 9422   9.313   9.760   6.848
 2114W        W 9423  19.268   8.288   7.323
 2115W        W 9424   3.619   7.051   7.895
 2116W        W 9425   1.713   8.541   6.244
 2117W        W 9426  16.286   1.726   8.951
 2118W        W 9427  16.187   2.647   9.789
 2119W        W 9428  19.032   3.871   0.834
 2120W        W 9429  11.363   1.010   7.678
 2121W        W 9430   5.840   7.437   0.082
 2122W        W 9431  19.339   1.339   7.892
 2123W        W 9432  19.505   4.406   0.266
 2124W        W 9433   8.358   4.634   6.204
 2125W        W 9434  10.950   1.526   0.301
 2126W        W 9435   6.187   1.581   8.454
 2127W        W 9436  15.327   4.659   8.912
 2128W        W 9437   8.478   6.858   8.699
 2129W        W 9438  11.967   2.994   7.259
 2130W        W 9439   6.991   6.065   9.191
 2131W        W 9440   3.266   5.867   8.318
 2132W        W 9441   9.957   3.467   7.226
 2133W        W 9442  12.521   4.287   6.356
 2134W        W 9443  15.849   5.935   0.620
 2135W        W 9444  11.470   9.351   0.464
 2136W        W 9445  15.855   9.132   0.129
 2137W        W 9446  19.591   3.396   6.893
 2138W        W 9447   0.154   7.322   0.318
 2139W        W 9448   8.690   9.341   7.094
 2140W        W 9449   4.119   1.457   6.408
 2141W        W 9450   3.951   4.990   9.832
 2142W        W 9451  19.203   1.622   1.037
 2143W        W 9452   7.799   3.115   7.543
 2144W        W 9453   9.653   5.136   7.998
 2145W        W 9454  15.411   1.753   8.316
 2146W        W 9455   3.440   6.309   0.235
 2147W        W 9456   4.236   9.100   8.152
 2148W        W 9457  10.052   9.783   9.271
 2149W        W 9458  12.938   2.746   0.912
 2150W        W 9459  10.913   6.600   9.188
 2151W        W 9460   6.984   4.944   7.719
 2152W        W 9461   1.044   1.644   9.387
 2153W        W 9462   3.696   9.720   9.703
 2154W        W 9463  10.898   3.678   6.330
 2155W        W 9464   4.556   7.143   6.057
 2156W        W 9465  19.471   7.469   8.141
 2157W        W 9466   1.819   3.876   6.846
 2158W        W 9467  19.204   4.118   7.527
 2159W        W 9468   9.924   7.697   8.115
 2160W        W 9469  18.140   1.172   8.189
 2161W        W 9470  19.823   9.004   0.004
 2162W        W 9471  12.940   5.532   6.505
 2163W        W 9472   4.756   3.466   6.915
 2164W        W 9473  13.541   4.473   9.067
 2165W        W 9474  16.855   9.166   9.560
 2166W        W 9475   6.266   3.311   0.762
 2167W        W 9476  10.368   7.518   7.389
 2168W        W 9477  19.340   1.964   0.686
 2169W        W 9478  18.741   2.609   9.721
 2170W        W 9479   6.698   5.029   0.525
 2171W        W 9480  12.444   9.357   6.330
 2172W        W 9481   1.693   0.826   8.060
 2173W        W 9482   5.947   2.377   6.305
 2174W        W 9483   0.410   4.139   9.194
 2175W        W 9484   9.903   6.701   7.241
 2176W        W 9485  17.025   0.864   0.286
 2177W        W 9486   6.511   0.039   9.794
 2178W        W 9487   5.311   0.659   7.308
 2179W        W 9488   4.351   4.698   0.698
 2180W        W 9489  19.429   9.558   9.714
 2181W        W 9490  14.410   3.958   8.077
 2182W        W 9491   9.986   4.459   8.573
 2183W        W 9492  16.318   3.714   0.916
 2184W        W 9493   2.999   9.326   6.250
 2185W        W 9494   0.191   4.569   9.463
 2186W        W 9495  14.772   1.670   6.700
 2187W        W 9496  13.420   6.328   0.542
 2188W        W 9497  15.065   2.008   6.460
 2189W        W 9498   3.080   9.311   0.733
 2190W        W 9499   0.189   1.890   9.005
 2191W        W 9500  14.022   0.182   7.610
 2192W        W 9501   5.881   2.321   8.069
 2193W        W 9502   7.344   2.682   8.834
 2194W        W 9503  18.615   4.435   0.123
 2195W        W 9504  17.831   3.918   9.657
 2196W        W 9505  15.293   9.666   7.208
 2197W        W 9506  12.170   3.525   6.405
 2198W        W 9507   6.361   7.341   8.183
 2199W        W 9508   1.028   4.861   7.750
 2200W        W 9509   1.783   2.182   0.608
 2201W        W 9510  17.570   6.073   8.028
 2202W        W 9511  17.286   7.073   6.509
 2203W        W 9512   7.266   2.233   8.511
 2204W        W 9513   4.721   6.918   8.166
 2205W        W 9514   7.571   2.335   7.945
 2206W        W 9515   5.315   3.598   8.072
 2207W        W 9516   0.721   2.589   9.165
 2208W        W 9517   4.897   8.289   7.836
 2209W        W 9518  16.714   6.379   9.675
 2210W        W 9519   1.964   9.287   9.711
 2211W        W 9520  10.723   8.934   7.148
 2212W        W 9521   7.108   8.184   0.184
 2213W        W 9522  15.440   3.224   7.118
 2214W        W 9523   7.911   9.687   8.382
 2215W        W 9524   7.860   5.355   9.298
 2216W        W 9525  14.053   3.693   6.054
 2217W        W 9526  12.707   0.241   7.857
 2218W        W 9527   0.304   0.665   9.531
 2219W        W 9528  14.392   9.854   8.173
 2220W        W 9529   8.288   6.838   9.712
 2221W        W 9530  18.256   4.083   8.556
 2222W        W 9531  18.699   1.698   9.191
 2223W        W 9532   5.076   9.428   9.559
 2224W        W 9533   1.793   5.452   7.538
 2225W        W 9534  13.970   1.042   7.642
 2226W        W 9535   9.290   0.425   0.028
 2227W        W 9536   2.635   2.051   7.993
 2228W        W 9537   1.696   8.913   8.778
 2229W        W 9538   4.082   6.317   8.493
 2230W        W 9539   5.693   9.900   0.157
 2231W        W 9540   0.500   4.511   0.532
 2232W        W 9541   1.715   2.974   7.841
 2233W        W 9542  13.060   0.155   9.853
 2234W        W 9543   8.252   8.824   8.393
 2235W        W 9544  16.434   6.268   6.930
 2236W        W 9545   2.219   3.199   9.905
 2237W        W 9546   8.352   5.996   8.290
 2238W        W 9547  10.244   7.955   7.137
 2239W        W 9548  13.544   7.865   8.799
 2240W        W 9549  11.107   9.372   0.802
 2241W        W 9550   6.451   2.531   8.795
 2242W        W 9551   4.806   1.549   9.580
 2243W        W 9552  19.356   9.104   0.873
 2244W        W 9553  19.869   5.458   7.612
 2245W        W 9554   1.469   4.046   9.236
 2246W        W 9555   1.428   1.236   8.258
 2247W        W 9556   6.626   3.382   9.655
 2248W        W 9557   9.547   9.700   0.171
 2249W        W 9558  10.718   9.418   5.932
 2250W        W 9559  15.126   0.713   9.241
 2251W        W 9560   3.549   1.903   9.062
 2252W        W 9561   3.278   8.907   6.479
 2253W        W 9562  14.860   2.627   8.619
 2254W        W 9563  10.698   8.174   0.685
 2255W        W 9564  18.681   7.307   6.943
 2256W        W 9565   4.805   6.419   8.081
 2257W        W 9566   6.794   5.163   9.554
 2258W        W 9567   8.664   3.858   0.043
 2259W        W 9568   4.544   2.973   0.369
 2260W        W 9569   7.332   5.285   9.370
 2261W        W 9570   4.766   9.880   6.641
 2262W        W 9571   4.729   7.435   8.181
 2263W        W 9572   7.981   9.168   6.438
 2264W        W 9573  10.882   1.310   0.752
 2265W        W 9574   8.789   4.050   8.459
 2266W        W 9575  13.664   6.948   9.682
 2267W        W 9576  13.072   6.375   0.148
 2268W        W 9577   6.125   9.685   9.955
 2269W        W 9578  19.393   7.798   0.199
 2270W        W 9579  11.169   6.758   6.898
 2271W        W 9580   9.518   0.910   9.872
 2272W        W 9581   5.042   3.738   6.547
 2273W        W 9582   9.524   7.281   8.010
 2274W        W 9583  10.634   5.026   8.368
 2275W        W 9584  17.849   4.591   6.076
 2276W        W 9585   8.331   8.290   7.805
 2277W        W 9586   5.314   7.692   8.378
 2278W        W 9587   7.215   0.761   8.386
 2279W        W 9588  13.674   4.925   7.381
 2280W        W 9589   1.800   4.493   0.923
 2281W        W 9590  14.043   8.288   7.021
 2282W        W 9591  11.630   5.922   6.547
 2283W        W 9592  16.743   4.809   8.789
 2284W        W 9593   7.722   0.104   9.052
 2285W        W 9594   4.007   8.579   6.748
 2286W        W 9595   4.845   0.099   7.874
 2287W        W 9596   7.165   9.467   0.753
 2288W        W 9597   4.193   2.259   6.774
 2289W        W 9598   6.656   0.234   0.567
 2290W        W 9599   2.275   3.714   7.519
 2291W        W 9600  13.534   9.763   7.600
 2292W        W 9601  17.331   3.946   0.303
 2293W        W 9602  11.160   8.510   0.775
 2294W        W 9603  17.651   7.256   5.653
 2295W        W 9604  18.768   9.546   6.547
 2296W        W 9605   9.907   7.475   9.300
 2297W        W 9606   2.751   9.111   8.354
 2298W        W 9607  17.074   5.130   9.782
 2299W        W 9608   1.015   2.020   0.137
 2300W        W 9609  15.748   0.700   0.867
 2301W        W 9610  11.769   8.399   0.706
 2302W        W 9611   2.405   6.265   0.684
 2303W        W 9612  18.165   7.462   6.370
 2304W        W 9613   2.806   5.051   6.460
 2305W        W 9614   0.117   8.728   8.627
 2306W        W 9615   5.217   2.838   6.456
 2307W        W 9616  11.729   8.642   9.276
 2308W        W 9617   4.509   1.237   0.947
 2309W        W 9618  17.639   7.027   7.826
 2310W        W 9619  12.676   7.532   9.308
 2311W        W 9620   1.972   6.437   9.280
 2312W        W 9621  18.259   8.009   9.310
 2313W        W 9622  12.554   9.326   7.852
 2314W        W 9623   9.951   0.325   8.349
 2315W        W 9624  19.687   7.368   0.058
 2316W        W 9625   9.095   1.244   7.380
 2317W        W 9626  16.989   5.965   9.888
 2318W        W 9627   2.585   8.383   6.446
 2319W        W 9628  17.878   8.689   8.740
 2320W        W 9629   5.495   3.961   9.458
 2321W        W 9630  12.355   4.323   7.848
 2322W        W 9631  10.925   4.806   7.140
 2323W        W 9632  15.103   4.250   0.865
 2324W        W 9633  17.564   3.787   7.971
 2325W        W 9634   7.087   6.370   8.355
 2326W        W 9635  16.323   5.143   8.721
 2327W        W 9636  13.783   3.173   7.907
 2328W        W 9637  11.614   0.823   7.214
 2329W        W 9638  15.016   8.196   9.812
 2330W        W 9639   9.226   1.149   9.075
 2331W        W 9640  11.521   0.819   6.693
 2332W        W 9641   5.080   4.287   6.652
 2333W        W 9642   9.668   6.760   8.551
 2334W        W 9643  15.730   9.095   6.998
 2335W        W 9644   1.009   2.918   8.922
 2336W        W 9645   2.383   7.471   8.856
 2337W        W 9646   9.825   2.354   7.398
 2338W        W 9647  12.419   9.357   7.361
 2339W        W 9648   0.779   4.643   8.206
 2340W        W 9649   4.828   0.459   0.375
 2341W        W 9650  10.991   2.515   0.294
 2342W        W 9651   2.409   1.728   6.368
 2343W        W 9652  18.144   3.491   9.215
 2344W        W 9653   6.319   7.355   8.688
 2345W        W 9654   0.301   1.637   6.664
 2346W        W 9655   0.977   1.544   9.873
 2347W        W 9656   8.580   2.572   8.380
 2348W        W 9657  10.501   5.365   7.831
 2349W        W 9658  17.528   0.208   6.286
 2350W        W 9659  17.423   5.131   0.555
 2351W        W 9660  12.206   5.135   6.328
 2352W        W 9661   5.594   7.778   9.674
 2353W        W 9662  15.002   3.616   0.165
 2354W        W 9663   1.564   7.110   8.869
 2355W        W 9664   0.266   2.123   7.856
 2356W        W 9665   8.340   9.593   0.174
 2357W        W 9666   2.677   9.612   9.146
 2358W        W 9667  17.446   4.133   6.336
 2359W        W 9668  10.342   0.923   9.107
 2360W        W 9669  11.994   3.030   6.478
 2361W        W 9670  15.243   9.751   6.518
 2362W        W 9671   3.940   1.071   9.587
 2363W        W 9672  11.634   5.984   7.069
 2364W        W 9673  11.975   8.425   0.228
 2365W        W 9674   4.506   1.563   7.842
 2366W        W 9675  12.114   7.004   7.722
 2367W        W 9676  18.945   0.363   7.612
 2368W        W 9677   1.037   7.603   0.364
 2369W        W 9678   2.469   8.696   9.217
 2370W        W 9679  11.287   1.240   7.226
 2371W        W 9680  18.233   2.083   7.663
 2372W        W 9681   2.938   3.310   7.621
 2373W        W 9682   1.649   0.762   9.077
 2374W        W 9683  14.481   8.445   0.327
 2375W        W 9684   2.179   4.243   6.711
 2376W        W 9685   7.463   0.189   7.114
 2377W        W 9686   7.609   2.497   7.076
 2378W        W 9687  19.661   1.752   7.308
 2379W        W 9688  17.419   2.561   7.887
 2380W        W 9689   4.678   4.795   7.507
 2381W        W 9690  18.693   3.928   8.245
 2382W        W 9691  19.099   1.793   7.975
 2383W        W 9692   4.628   9.187   1.062
 2384W        W 9693  19.441   5.430   7.278
 2385W        W 9694  12.520   7.800   9.769
 2386W        W 9695  12.893   3.143   9.586
 2387W        W 9696  13.588   3.883   7.681
 2388W        W 9697   3.736   2.233   6.513
 2389W        W 9698   4.357   5.509   9.068
 2390W        W 9699   9.752   9.418   6.313
 2391W        W 9700   2.854   3.125   6.652
 2392W        W 9701  17.756   1.777   8.714
 2393W        W 9702  13.169   4.072   0.591
 2394W        W 9703  17.127   7.914   7.802
 2395W        W 9704  18.128   3.064   7.269
 2396W        W 9705  12.854   5.080   7.813
 2397W        W 9706  13.118   7.375   8.140
 2398W        W 9707   1.334   6.976   8.314
 2399W        W 9708   7.701   5.609   8.887
 2400W        W 9709  10.974   0.162   9.313
 2401W        W 9710   4.027   0.648   8.744
 2402W        W 9711   6.112   6.133   6.866
 2403W        W 9712   9.919   4.994   0.711
 2404W        W 9713  18.494   8.951   7.293
 2405W        W 9714  18.269   3.471   8.716
 2406W        W 9715   4.409   5.011   6.334
 2407W        W 9716   5.762   5.107   6.168
 2408W        W 9717  10.546   4.590   0.436
 2409W        W 9718   2.955   9.422   8.738
 2410W        W 9719  18.568   1.058   0.907
 2411W        W 9720  13.767   4.040   6.379
 2412W        W 9721   0.599   9.417   8.445
 2413W        W 9722  12.283   7.311   0.638
 2414W        W 9723  13.408   9.378   6.234
 2415W        W 9724   0.298   9.804   9.635
 2416W        W 9725  15.206   6.518   9.051
 2417W        W 9726   7.350   0.241   9.371
 2418W        W 9727   8.504   5.106   6.261
 2419W        W 9728   7.552   3.883   0.675
 2420W        W 9729  18.077   8.195   7.707
 2421W        W 9730  11.711   0.940   8.030
 2422W        W 9731  17.026   4.621   8.215
 2423W        W 9732   3.054   3.177   0.330
 2424W        W 9733  14.321   9.743   0.745
 2425W        W 9734  18.295   1.650   9.479
 2426W        W 9735  16.249   1.525   6.959
 2427W        W 9736   3.486   4.971   7.416
 2428W        W 9737  15.205   6.288   0.479
 2429W        W 9738   4.954   0.077   0.714
 2430W        W 9739  13.500   3.620   9.063
 2431W        W 9740  19.110   3.319   7.083
 2432W        W 9741  18.430   9.855   9.472
 2433W        W 9742  11.074   7.261   9.968
 2434W        W 9743  15.256   5.553   9.953
 2435W        W 9744  15.823   5.422   6.972
 2436W        W 9745   3.800   8.793   7.677
 2437W        W 9746   8.934   7.904   8.340
 2438W        W 9747   4.564   8.396   9.266
 2439W        W 9748   2.655   3.784   8.286
 2440W        W 9749  11.168   5.958   6.314
 2441W        W 9750   4.072   4.196   6.392
 2442W        W 9751   3.297   6.839   7.528
 2443W        W 9752  18.306   4.215   8.068
 2444W        W 9753  11.335   2.532   6.273
 2445W        W 9754   1.257   2.593   9.319
 2446W        W 9755  14.107   5.130   9.538
 2447W        W 9756   8.650   0.614   6.675
 2448W        W 9757  11.969   1.871   8.379
 2449W        W 9758  18.806   8.260   9.883
 2450W        W 9759  17.546   3.687   7.096
 2451W        W 9760  16.868   2.915   7.393
 2452W        W 9761   9.571   8.613   8.098
 2453W        W 9762   2.533   1.699   8.734
 2454W        W 9763   9.531   9.932   8.833
 2455W        W 9764   6.440   0.525   8.909
 2456W        W 9765   8.264   0.771   7.006
 2457W        W 9766  17.751   2.213   9.471
 2458W        W 9767  17.287   1.240   8.719
 2459W        W 9768   0.725   1.975   9.707
 2460W        W 9769  14.117   6.305   5.797
 2461W        W 9770   0.467   7.267   9.862
 2462W        W 9771  16.300   4.818   9.489
 2463W        W 9772  12.272   0.180   7.597
 2464W        W 9773  13.817   0.629   0.971
 2465W        W 9774   1.250   5.688   6.704
 2466W        W 9775  10.092   7.848   7.657
 2467W        W 9776   3.247   2.808   6.739
 2468W        W 9777  16.819   5.537   8.038
 2469W        W 9778  17.888   8.968   9.411
 2470W        W 9779   4.159   2.033   7.270
 2471W        W 9780   6.262   3.627   7.845
 2472W        W 9781   3.349   0.209   6.381
 2473W        W 9782  12.096   2.227   6.621
 2474W        W 9783   1.553   2.596   0.774
 2475W        W 9784  17.341   5.755   6.023
 2476W        W 9785  18.201   1.631   8.967
 2477W        W 9786   6.280   7.586   0.290
 2478W        W 9787  12.622   9.784   7.593
 2479W        W 9788   2.020   8.643   7.538
 2480W        W 9789  11.907   7.902   0.873
 2481W        W 9790   4.502   5.416   0.389
 2482W        W 9791  12.934   1.346   7.546
 2483W        W 9792  12.541   0.655   7.605
 2484W        W 9793  19.950   4.824   8.182
 2485W        W 9794   6.958   0.888   8.859
 2486W        W 9795  11.191   9.195   8.620
 2487W        W 9796   0.009   2.096   8.555
 2488W        W 9797  15.148   2.330   7.842
 2489W        W 9798   5.118   3.304   9.377
 2490W        W 9799  12.275   4.054   0.557
 2491W        W 9800  18.950   0.674   0.662
 2492W        W 9801   4.947   1.875   7.866
 2493W        W 9802  12.705   4.080   0.839
 2494W        W 9803   4.889   9.073   6.063
 2495W        W 9804  14.541   8.272   8.643
 2496W        W 9805  16.403   4.043   7.060
 2497W        W 9806  11.101   9.873   0.238
 2498W        W 9807   8.044   3.043   0.328
 2499W        W 9808  13.953   4.136   7.923
 2500W        W 9809   1.283   2.110   7.687
 2501W        W 9810   0.457   5.903   9.783
 2502W        W 9811  16.518   1.320   7.583
 2503W        W 9812  17.106   3.831   6.557
 2504W        W 9813  15.002   9.002   0.367
 2505W        W 9814   3.728   7.991   9.571
 2506W        W 9815   4.990   9.337   6.940
 2507W        W 9816   5.223   0.668   0.637
 2508W        W 9817  12.025   6.489   7.500
 2509W        W 9818   4.223   0.520   8.280
 2510W        W 9819   7.853   2.273   9.871
 2511W        W 9820  11.294   8.412   8.977
 2512W        W 9821   0.328   0.291   7.426
 2513W        W 9822  17.442   8.853   8.498
 2514W        W 9823  10.653   1.771   8.044
 2515W        W 9824  10.497   0.800   6.823
 2516W        W 9825  13.260   3.177   8.809
 2517W        W 9826   7.610   4.968   7.021
 2518W        W 9827   4.173   3.659   9.081
 2519W        W 9828  16.741   7.155   6.314
 2520W        W 9829   5.011   7.184   7.816
 2521W        W 9830   7.004   6.155   6.885
 2522W        W 9831   4.123   1.086   7.426
 2523W        W 9832  13.617   7.634   6.707
 2524W        W 9833   8.608   4.584   0.643
 2525W        W 9834  18.281   8.822   8.461
 2526W        W 9835  15.036   5.693   6.645
 2527W        W 9836  17.535   7.410   0.728
 2528W        W 9837  13.025   0.789   7.815
 2529W        W 9838  15.697   0.675   7.808
 2530W        W 9839   9.243   5.590   8.961
 2531W        W 9840  17.704   9.402   7.326
 2532W        W 9841   1.410   3.173   8.692
 2533W        W 9842  13.797   2.970   1.116
 2534W        W 9843  19.507   6.377   7.270
 2535W        W 9844  16.604   7.977   7.819
 2536W        W 9845   9.134   6.561   7.927
 2537W        W 9846  18.290   2.639   9.979
 2538W        W 9847   8.449   4.196   9.722
 2539W        W 9848  16.545   7.968   6.929
 2540W        W 9849   0.182   4.008   7.151
 2541W        W 9850  14.808   3.808   6.200
 2542W        W 9851   4.580   7.936   9.055
 2543W        W 9852  15.950   0.231   6.366
 2544W        W 9853   8.739   3.219   6.329
 2545W        W 9854   8.164   3.996   0.127
 2546W        W 9855  15.618   7.528   9.370
 2547W        W 9856  10.231   7.366   7.881
 2548W        W 9857   6.166   1.963   6.092
 2549W        W 9858   9.068   0.988   0.812
 2550W        W 9859   2.567   4.196   7.994
 2551W        W 9860  14.849   8.896   6.786
 2552W        W 9861   1.150   4.647   9.550
 2553W        W 9862  15.396   4.950   6.336
 2554W        W 9863   1.567   5.316   9.902
 2555W        W 9864  19.927   5.276   8.426
 2556W        W 9865  15.866   5.881   8.913
 2557W        W 9866   9.682   9.407   8.125
 2558W        W 9867  13.339   6.506   8.843
 2559W        W 9868   3.345   0.818   9.251
 2560W        W 9869   9.725   5.823   7.389
 2561W        W 9870  15.602   6.327   6.656
 2562W        W 9871   3.968   6.856   6.876
 2563W        W 9872   7.561   6.227   7.288
 2564W        W 9873   6.417   5.729   0.268
 2565W        W 9874  13.865   5.596   8.722
 2566W        W 9875  17.254   5.142   8.148
 2567W        W 9876  16.424   4.155   0.127
 2568W        W 9877   0.053   0.229   9.471
 2569W        W 9878   0.623   1.471   7.605
 2570W        W 9879  12.451   2.785   9.155
 2571W        W 9880  17.545   8.573   0.219
 2572W        W 9881   6.083   9.301   0.775
 2573W        W 9882   2.004   1.509   6.573
 2574W        W 9883  18.289   3.801   7.430
 2575W        W 9884   1.232   1.129   0.082
 2576W        W 9885  13.718   1.368   7.341
 2577W        W 9886   2.982   8.443   0.467
 2578W        W 9887   2.836   8.741   9.624
 2579W        W 9888  17.682   7.402   6.163
 2580W        W 9889   5.962   1.177   0.403
 2581W        W 9890   6.723   9.731   0.591
 2582W        W 9891   4.533   7.554   6.554
 2583W        W 9892   1.779   2.509   9.249
 2584W        W 9893  10.316   7.513   8.414
 2585W        W 9894  15.914   0.746   8.722
 2586W        W 9895   0.655   8.057   8.605
 2587W        W 9896   3.313   8.934   7.020
 2588W        W 9897   9.914   7.191   8.829
 2589W        W 9898  15.021   0.636   7.000
 2590W        W 9899   9.203   6.856   8.337
 2591W        W 9900   3.303   0.568   0.628
 2592W        W 9901  13.386   5.310   9.651
 2593W        W 9902   4.358   6.345   9.789
 2594W        W 9903  13.690   1.877   8.111
 2595W        W 9904  16.064   7.755   0.847
 2596W        W 9905   7.553   9.219   7.379
 2597W        W 9906  19.345   8.293   9.764
 2598W        W 9907  12.496   7.809   8.693
 2599W        W 9908   2.476   5.471   6.040
 2600W        W 9909   4.968   3.652   6.040
 2601W        W 9910   5.096   7.857   6.999
 2602W        W 9911   6.581   0.459   0.121
 2603W        W 9912   8.795   6.231   7.535
 2604W        W 9913   2.161   1.316   8.041
 2605W        W 9914   0.611   8.448   1.130
 2606W        W 9915  14.727   5.551   6.248
 2607W        W 9916  14.106   8.775   0.404
 2608W        W 9917  16.534   2.688   8.382
 2609W        W 9918  15.476   7.131   0.943
 2610W        W 9919  12.069   5.341   9.604
 2611W        W 9920   4.382   5.042   7.862
 2612W        W 9921   3.006   2.842   7.901
 2613W        W 9922  13.196   8.237   8.661
 2614W        W 9923  16.400   2.196   9.693
 2615W        W 9924   4.537   0.250   9.587
 2616W        W 9925  10.168   4.173   0.542
 2617W        W 9926  16.510   0.877   9.530
 2618W        W 9927   1.397   5.260   0.395
 2619W        W 9928  13.260   2.312   0.869
 2620W        W 9929   2.670   4.598   6.274
 2621W        W 9930  17.315   5.043   6.746
 2622W        W 9931   6.932   1.872   7.256
 2623W        W 9932  11.529   6.620   8.367
 2624W        W 9933   6.782   3.193   7.446
 2625W        W 9934  17.308   5.624   7.931
 2626W        W 9935   3.802   2.350   8.003
 2627W        W 9936  19.263   5.915   7.374
 2628W        W 9937  19.652   5.402   0.142
 2629W        W 9938  13.919   9.238   6.121
 2630W        W 9939   7.002   5.897   0.190
 2631W        W 9940   9.329   4.544   6.165
 2632W        W 9941  15.589   2.048   0.293
 2633W        W 9942  16.045   5.135   9.185
 2634W        W 9943   9.854   7.405   7.528
 2635W        W 9944   0.229   5.036   9.698
 2636W        W 9945  13.812   1.468   7.844
 2637W        W 9946  17.833   8.346   0.602
 2638W        W 9947  12.039   9.469   9.112
 2639W        W 9948  12.961   5.963   7.970
 2640W        W 9949   3.853   7.847   0.726
 2641W        W 9950   1.705   7.316   7.107
 2642W        W 9951  15.388   9.926   5.976
 2643W        W 9952   5.359   0.603   8.782
 2644W        W 9953  10.570   0.669   8.719
 2645W        W 9954  10.629   8.552   6.785
 2646W        W 9955  15.482   3.729   8.852
 2647W        W 9956  18.643   3.459   9.132
 2648W        W 9957   2.038   1.557   8.696
 2649W        W 9958  10.678   9.904   6.104
 2650W        W 9959  16.433   8.442   7.960
 2651W        W 9960  13.856   9.267   7.098
 2652W        W 9961   7.703   4.121   6.809
 2653W        W 9962   4.613   0.255   5.992
 2654W        W 9963  11.651   3.420   6.500
 2655W        W 9964   4.392   4.600   8.939
 2656W        W 9965  19.028   0.501   8.975
 2657W        W 9966  19.057   3.528   0.047
 2658W        W 9967  16.230   4.580   0.444
 2659W        W 9968  10.591   4.095   7.310
 2660W        W 9969   1.668   8.074   6.033
 2661W        W 9970   3.497   8.529   6.777
 2662W        W 9971   7.482   8.975   8.165
 2663W        W 9972   3.147   9.863   8.956
 2664W        W 9973   8.675   8.163   9.895
 2665W        W 9974   7.194   8.023   0.667
 2666W        W 9975   4.656   1.522   0.182
 2667W        W 9976   6.016   6.042   8.711
 2668W        W 9977  19.417   6.939   8.936
 2669W        W 9978  16.666   2.582   6.209
 2670W        W 9979   3.230   4.555   7.571
 2671W        W 9980   9.733   4.700   9.793
 2672W        W 9981  10.844   4.980   9.543
 2673W        W 9982  15.988   8.593   0.915
 2674W        W 9983   2.552   9.255   0.875
 2675W        W 9984   3.662   4.539   8.271
 2676W        W 9985  18.630   1.742   8.180
 2677W        W 9986  10.945   8.501   0.286
 2678W        W 9987   6.267   4.754   9.009
 2679W        W 9988  14.064   8.858   9.907
 2680W        W 9989   4.474   4.494   6.241
 2681W        W 9990  19.196   1.107   5.813
 2682W        W 9991  15.446   4.078   7.174
 2683W        W 9992  13.744   2.464   9.423
 2684W        W 9993  19.308   4.333   6.517
 2685W        W 9994   4.705   7.601   9.428
 2686W        W 9995   0.240   1.206   7.377
 2687W        W 9996   5.225   3.280   0.566
 2688W        W 9997   5.461   5.815   8.026
 2689W        W 9998  12.673   9.324   0.835
 2690W        W 9999  11.718   6.449   0.260
 2691W        W10000  14.986   8.225   9.101
 2692W        W10001  12.564   6.960   8.808
 2693W        W10002  11.509   7.689   0.618
 2694W        W10003  11.795   0.331   0.294
 2695W        W10004   1.073   1.678   7.519
 2696W        W10005  11.103   4.511   6.172
 2697W        W10006  12.607   5.385   9.286
 2698W        W10007  13.876   9.695   9.955
 2699W        W10008   0.684   9.400   6.665
 2700W        W10009  14.466   1.250   8.416
 2701W        W10010  17.738   1.297   8.978
 2702W        W10011  18.277   2.590   9.464
 2703W        W10012  12.842   8.680   6.245
 2704W        W10013  14.739   9.145   8.172
 2705W        W10014  14.225   6.800   6.571
 2706W        W10015   4.773   7.990   7.430
 2707W        W10016   2.685   9.871   8.718
 2708W        W10017  17.119   7.878   0.903
 2709W        W10018  15.926   0.344   9.971
 2710W        W10019   2.800   5.838   6.290
 2711W        W10020  15.924   8.081   9.134
 2712W        W10021  14.066   7.744   6.921
 2713W        W10022   5.207   6.725   8.004
 2714W        W10023  18.213   7.351   9.862
 2715W        W10024   8.835   8.604   9.696
 2716W        W10025  10.736   4.117   9.189
 2717W        W10026   8.449   6.038   8.839
 2718W        W10027   4.097   1.940   7.788
 2719W        W10028  13.059   6.535   8.416
 2720W        W10029  18.461   4.834   9.233
 2721W        W10030   5.494   8.826   9.718
 2722W        W10031  13.598   2.718   7.713
 2723W        W10032   0.166   7.247   9.454
 2724W        W10033  17.260   2.177   0.235
 2725W        W10034   2.589   2.801   9.608
 2726W        W10035  18.798   5.036   0.494
 2727W        W10036   4.709   2.660   8.306
 2728W        W10037   5.569   3.061   7.434
 2729W        W10038  17.014   4.393   8.672
 2730W        W10039   2.123   0.780   6.370
 2731W        W10040   9.823   6.445   6.718
 2732W        W10041  12.361   6.119   5.915
 2733W        W10042   4.027   3.103   0.274
 2734W        W10043   3.686   3.618   9.815
 2735W        W10044  14.530   8.042   9.935
 2736W        W10045   4.290   8.717   7.808
 2737W        W10046  19.461   2.570   6.202
 2738W        W10047  10.492   2.331   8.079
 2739W        W10048  12.242   7.499   7.399
 2740W        W10049  17.132   0.339   9.034
 2741W        W10050  10.190   8.466   7.035
 2742W        W10051  15.027   4.861   8.407
 2743W        W10052   3.549   3.612   9.319
 2744W        W10053  12.377   6.587   5.713
 2745W        W10054  19.784   1.320   7.600
 2746W        W10055  14.415   6.242   0.969
 2747W        W10056   7.901   8.248   5.987
 2748W        W10057   1.911   0.009   8.582
 2749W        W10058  16.299   2.234   1.223
 2750W        W10059   1.937   2.045   8.489
 2751W        W10060  19.687   1.741   1.209
 2752W        W10061   4.545   9.271   7.222
 2753W        W10062  11.911   0.116   5.919
 2754W        W10063   8.737   4.029   7.327
 2755W        W10064  18.124   8.582   7.215
 2756W        W10065   6.099   0.493   6.762
 2757W        W10066  14.563   7.335   8.195
 2758W        W10067   2.527   6.246   6.512
 2759W        W10068   2.375   0.234   8.534
 2760W        W10069  11.739   5.963   0.471
 2761W        W10070   0.718   4.145   8.330
 2762W        W10071   8.617   7.839   6.182
 2763W        W10072   0.306   4.059   6.590
 2764W        W10073  13.261   1.872   6.666
 2765W        W10074   1.410   1.663   8.555
 2766W        W10075   3.561   1.612   0.754
 2767W        W10076  16.110   8.172   7.124
 2768W        W10077   7.683   1.697   0.549
 2769W        W10078  11.874   1.344   8.446
 2770W        W10079   4.583   1.221   8.226
 2771W        W10080   2.909   2.863   7.379
 2772W        W10081  10.486   8.743   8.892
 2773W        W10082   1.650   1.848   6.825
 2774W        W10083   3.552   7.773   0.055
 2775W        W10084  17.747   2.766   6.691
 2776W        W10085  17.857   7.365   9.414
 2777W        W10086  13.381   2.696   0.092
 2778W        W10087  15.125   4.433   7.711
 2779W        W10088   0.344   8.937   0.069
 2780W        W10089  11.157   5.997   6.835
 2781W        W10090  14.496   4.044   7.572
 2782W        W10091   9.906   8.126   6.773
 2783W        W10092   9.596   2.581   0.765
 2784W        W10093  14.600   5.156   0.672
 2785W        W10094   7.652   3.544   6.030
 2786W        W10095   5.617   2.953   7.998
 2787W        W10096   1.680   3.554   0.577
 2788W        W10097   0.336   9.350   7.481
 2789W        W10098  19.438   3.938   6.182
 2790W        W10099   0.378   0.216   6.304
 2791W        W10100   2.612   6.978   8.881
 2792W        W10101   5.147   6.988   9.003
 2793W        W10102   5.014   1.396   7.997
 2794W        W10103  17.433   4.188   9.853
 2795W        W10104  19.518   2.264   8.550
 2796W        W10105   5.750   3.710   7.841
 2797W        W10106  17.785   7.377   0.233
 2798W        W10107  18.249   7.818   8.409
 2799W        W10108   6.638   5.002   6.320
 2800W        W10109  18.918   2.513   7.160
 2801W        W10110   4.526   2.057   0.381
 2802W        W10111  13.732   5.403   0.173
 2803W        W10112  13.607   1.976   9.486
 2804W        W10113   6.907   8.533   8.496
 2805W        W10114   5.505   3.729   0.495
 2806W        W10115  12.772   7.734   0.224
 2807W        W10116  11.521   5.882   5.965
 2808W        W10117  15.231   1.046   6.175
 2809W        W10118   0.870   3.634   8.382
 2810W        W10119   8.414   8.025   1.492
 2811W        W10120  12.242   0.139   8.111
 2812W        W10121  13.214   5.222   7.443
 2813W        W10122   1.364   0.209   0.213
 2814W        W10123  19.455   5.227   6.279
 2815W        W10124   4.740   7.915   0.603
 2816W        W10125  10.473   8.715   0.594
 2817W        W10126  15.449   5.421   6.511
 2818W        W10127  16.172   0.338   8.504
 2819W        W10128  15.828   1.687   9.228
 2820W        W10129  10.993   7.922   7.873
 2821W        W10130  12.879   2.072   6.949
 2822W        W10131  15.527   3.210   6.122
 2823W        W10132  13.782   4.589   7.745
 2824W        W10133   4.287   2.920   7.540
 2825W        W10134   8.841   7.466   6.481
 2826W        W10135   8.207   7.374   9.353
 2827W        W10136   8.436   2.904   1.105
 2828W        W10137   8.062   1.767   6.893
 2829W        W10138  10.551   5.892   7.103
 2830W        W10139  11.142   2.531   9.445
 2831W        W10140  19.997   2.860   8.140
 2832W        W10141   2.564   5.513   8.414
 2833W        W10142   4.285   6.048   7.781
 2834W        W10143  19.353   4.813   0.729
 2835W        W10144  16.022   2.601   8.623
 2836W        W10145   3.895   5.152   7.672
 2837W        W10146  19.778   8.571   9.714
 2838W        W10147   0.675   4.050   6.941
 2839W        W10148   8.645   1.994   9.654
 2840W        W10149   6.926   8.378   9.386
 2841W        W10150  17.442   0.376   8.198
 2842W        W10151   8.901   2.974   0.882
 2843W        W10152  10.122   2.749   0.825
 2844W        W10153  16.019   8.048   0.057
 2845W        W10154   0.699   9.170   7.818
 2846W        W10155   2.981   0.118   7.348
 2847W        W10156  13.694   7.566   7.235
 2848W        W10157  15.780   1.649   8.718
 2849W        W10158  19.377   2.569   7.348
 2850W        W10159   1.892   7.899   0.145
 2851W        W10160  18.436   7.208   7.733
 2852W        W10161  10.130   9.614   7.972
 2853W        W10162   3.871   2.583   8.452
 2854W        W10163  14.038   2.190   1.207
 2855W        W10164   5.175   0.288   9.193
 2856W        W10165   8.535   0.047   6.556
 2857W        W10166  16.515   3.103   9.203
 2858W        W10167   1.570   6.841   0.846
 2859W        W10168   9.713   7.316   9.871
 2860W        W10169   5.116   5.393   8.053
 2861W        W10170   7.786   8.670   5.699
 2862W        W10171   6.460   0.756   7.920
 2863W        W10172  10.983   6.838   0.852
 2864W        W10173   0.041   2.343   0.247
 2865W        W10174  10.270   6.308   8.708
 2866W        W10175  16.032   6.253   7.860
 2867W        W10176   5.212   5.670   8.910
 2868W        W10177   5.048   7.609   6.418
 2869W        W10178  18.455   3.969   6.459
 2870W        W10179  14.742   6.599   9.839
 2871W        W10180   7.289   3.431   0.627
 2872W        W10181   2.010   9.673   9.383
 2873W        W10182   0.062   9.855   7.655
 2874W        W10183   3.558   2.669   6.335
 2875W        W10184   0.151   1.669   7.653
 2876W        W10185  18.309   3.956   0.427
 2877W        W10186   0.270   2.287   9.774
 2878W        W10187   1.130   0.035   7.771
 2879W        W10188   5.611   8.248   8.418
 2880W        W10189  11.173   2.990   0.344
 2881W        W10190  14.564   4.988   6.817
 2882W        W10191   6.273   7.816   8.958
 2883W        W10192   4.534   8.857   0.115
 2884W        W10193   6.676   2.059   7.766
 2885W        W10194   9.562   1.053   0.658
 2886W        W10195   0.245   6.345   7.969
 2887W        W10196  19.048   7.784   8.126
 2888W        W10197  18.868   6.796   7.068
 2889W        W10198  15.521   9.453   9.568
 2890W        W10199  10.435   8.720   9.748
 2891W        W10200  14.791   2.516   9.241
 2892W        W10201  14.924   4.733   6.351
 2893W        W10202  19.085   7.647   6.720
 2894W        W10203  14.113   4.121   9.572
 2895W        W10204   7.042   0.121   6.691
 2896W        W10205   2.992   0.268   7.831
 2897W        W10206   7.987   9.925   7.693
 2898W        W10207  14.751   0.862   6.129
 2899W        W10208   0.606   9.044   5.726
 2900W        W10209   5.528   1.958   9.501
 2901W        W10210   2.585   2.548   7.981
 2902W        W10211  13.211   4.040   9.557
 2903W        W10212   2.218   4.070   0.490
 2904W        W10213  12.975   8.058   7.494
 2905W        W10214   7.485   7.244   6.338
 2906W        W10215   4.197   1.685   0.386
 2907W        W10216   2.181   6.353   6.942
 2908W        W10217  12.049   1.811   0.441
 2909W        W10218   6.635   4.068   8.525
 2910W        W10219   1.116   9.424   8.448
 2911W        W10220   8.547   6.606   6.480
 2912W        W10221  13.576   0.204   7.880
 2913W        W10222   2.511   6.115   9.724
 2914W        W10223  18.706   4.207   6.836
 2915W        W10224   1.738   2.426   9.760
 2916W        W10225   5.534   2.525   7.734
 2917W        W10226  12.557   7.195   1.052
 2918W        W10227   1.821   6.905   8.450
 2919W        W10228   7.586   6.374   0.248
 2920W        W10229   5.445   1.204   8.850
 2921W        W10230  16.158   2.862   0.298
 2922W        W10231  18.690   4.217   9.622
 2923W        W10232  13.096   9.895   7.856
 2924W        W10233  12.175   9.696   7.855
 2925W        W10234  16.763   7.172   8.455
 2926W        W10235  15.144   4.497   7.197
 2927W        W10236  18.119   2.295   0.803
 2928W        W10237   1.095   7.982   7.327
 2929W        W10238   9.807   5.100   6.395
 2930W        W10239   7.547   2.930   1.068
 2931W        W10240   4.248   3.274   0.693
 2932W        W10241   8.426   2.767   8.824
 2933W        W10242   2.616   6.008   7.700
 2934W        W10243   8.465   4.865   7.619
 2935W        W10244   0.861   8.504   9.780
 2936W        W10245  13.748   3.540   6.443
 2937W        W10246   0.221   6.558   0.976
 2938W        W10247  10.474   6.884   0.829
 2939W        W10248  19.609   7.735   6.700
 2940W        W10249   8.070   2.276   7.078
 2941W        W10250   9.096   1.434   6.596
 2942W        W10251  13.415   9.715   0.704
 2943W        W10252  13.793   1.887   7.575
 2944W        W10253  12.204   8.210   9.751
 2945W        W10254   7.453   6.597   8.024
 2946W        W10255   6.697   5.448   8.040
 2947W        W10256  18.894   8.411   6.160
 2948W        W10257  17.312   8.254   0.601
 2949W        W10258   9.089   2.259   9.593
 2950W        W10259  18.163   2.633   6.937
 2951W        W10260  12.101   9.360   9.601
 2952W        W10261  16.353   7.098   9.300
 2953W        W10262   1.420   6.239   7.974
 2954W        W10263   8.285   5.532   1.036
 2955W        W10264   5.781   7.833   6.575
 2956W        W10265  12.123   9.247   8.135
 2957W        W10266   8.260   0.679   0.915
 2958W        W10267  13.579   2.813   9.086
 2959W        W10268   4.441   4.963   9.705
 2960W        W10269   7.141   8.822   9.194
 2961W        W10270  14.315   9.439   8.938
 2962W        W10271  16.547   7.373   7.598
 2963W        W10272  17.290   1.251   9.241
 2964W        W10273  15.470   1.950   7.257
 2965W        W10274   3.457   7.538   0.534
 2966W        W10275   2.667   3.425   9.207
 2967W        W10276  14.193   3.847   7.165
 2968W        W10277  15.869   3.183   7.420
 2969W        W10278   9.624   1.657   6.667
 2970W        W10279  13.696   5.239   0.690
 2971W        W10280  18.685   6.763   7.582
 2972W        W10281   0.129   2.026   6.369
 2973W        W10282  16.110   5.757   9.501
 2974W        W10283   8.050   3.253   7.983
 2975W        W10284   0.538   0.049   7.858
 2976W        W10285   6.948   6.889   8.958
 2977W        W10286   0.783   1.254   9.166
 2978W        W10287  19.759   6.447   8.107
 2979W        W10288  16.844   1.108   7.944
 2980W        W10289  13.248   2.615   8.119
 2981W        W10290  17.490   4.772   9.560
 2982W        W10291  14.337   9.405   8.419
 2983W        W10292   1.161   3.660   9.383
 2984W        W10293  15.531   2.773   7.352
 2985W        W10294  10.071   9.310   7.145
 2986W        W10295   0.951   2.502   7.626
 2987W        W10296  17.832   8.176   6.847
 2988W        W10297   5.251   9.734   6.713
 2989W        W10298  14.667   4.372   6.118
 2990W        W10299  14.804   9.272   8.846
 2991W        W10300  16.627   9.301   7.510
 2992W        W10301  15.072   1.049   0.763
 2993W        W10302  12.849   2.126   7.782
 2994W        W10303   3.606   5.782   7.887
 2995W        W10304  14.409   4.455   0.082
 2996W        W10305  12.800   1.728   9.705
 2997W        W10306   0.357   6.995   6.645
 2998W        W10307  11.974   8.683   9.746
 2999W        W10308  11.149   1.817   8.198
 3000W        W10309   9.302   9.015   8.317
 3001W        W10310  15.167   9.311   6.806
 3002W        W10311   4.438   6.653   9.341
 3003W        W10312   9.313   8.109   7.460
 3004W        W10313  15.630   0.662   6.262
 3005W        W10314   2.867   5.322   9.609
 3006W        W10315  18.658   8.619   6.961
 3007W        W10316  14.358   8.971   8.698
 3008W        W10317   4.231   2.786   9.612
 3009W        W10318   8.808   5.900   8.499
 3010W        W10319   9.544   5.183   8.870
 3011W        W10320   1.098   9.368   7.563
 3012W        W10321  11.062   7.774   0.866
 3013W        W10322   0.679   2.951   0.367
 3014W        W10323   6.986   8.417   7.122
 3015W        W10324   4.625   5.560   6.861
 3016W        W10325   9.894   0.047   7.920
 3017W        W10326   5.255   8.884   6.847
 3018W        W10327  19.882   8.944   9.070
 3019W        W10328   2.228   8.683   6.193
 3020W        W10329  12.608   4.254   6.927
 3021W        W10330   7.121   7.972   6.824
 3022W        W10331   2.617   2.121   6.629
 3023W        W10332   6.313   1.459   0.164
 3024W        W10333  16.402   6.642   7.276
 3025W        W10334  11.045   3.326   0.738
 3026W        W10335   6.010   6.876   8.623
 3027W        W10336   0.775   2.709   6.670
 3028W        W10337   7.931   4.135   9.700
 3029W        W10338  12.009   2.523   8.949
 3030W        W10339  16.191   2.674   6.446
 3031W        W10340   3.383   3.068   7.536
 3032W        W10341  14.058   1.989   7.115
 3033W        W10342  16.495   4.080   6.543
 3034W        W10343   3.640   4.798   8.741
 3035W        W10344   2.205   8.872   8.790
 3036W        W10345   2.012   8.486   0.574
 3037W        W10346  14.318   7.714   9.251
 3038W        W10347  11.224   3.099   6.520
 3039W        W10348   9.014   2.571   7.153
 3040W        W10349   0.501   2.542   0.141
 3041W        W10350  13.543   0.107   8.994
 3042W        W10351   8.682   0.798   8.463
 3043W        W10352   4.731   7.682   8.631
 3044W        W10353  11.329   6.190   8.578
 3045W        W10354   2.038   0.520   6.823
 3046W        W10355   7.092   2.996   0.817
 3047W        W10356   5.934   4.112   9.013
 3048W        W10357  15.089   6.346   7.402
 3049W        W10358  12.982   7.141   7.135
 3050W        W10359  14.845   0.603   8.834
 3051W        W10360   1.463   0.747   0.350
 3052W        W10361  16.585   2.334   6.654
 3053W        W10362  18.506   4.725   6.927
 3054W        W10363  14.218   8.481   7.892
 3055W        W10364  12.192   1.827   7.912
 3056W        W10365   5.430   5.736   0.406
 3057W        W10366   1.061   6.530   8.265
 3058W        W10367  14.377   7.781   8.481
 3059W        W10368  16.870   1.717   0.716
 3060W        W10369  17.660   6.755   7.355
 3061W        W10370  14.128   4.011   0.090
 3062W        W10371   8.871   4.739   6.264
 3063W        W10372   7.149   6.516   9.393
 3064W        W10373  16.057   1.213   0.212
 3065W        W10374  10.024   6.746   6.351
 3066W        W10375   3.482   5.448   0.258
 3067W        W10376  13.666   1.236   0.050
 3068W        W10377  18.695   5.265   8.350
 3069W        W10378   7.697   8.538   8.864
 3070W        W10379  17.270   0.484   0.518
 3071W        W10380  15.541   1.033   9.356
 3072W        W10381  17.124   4.469   0.391
 3073W        W10382   0.663   0.901   6.857
 3074W        W10383  13.886   9.310   8.147
 3075W        W10384   3.296   0.328   9.134
 3076W        W10385   3.067   3.522   8.496
 3077W        W10386  16.356   3.511   8.890
 3078W        W10387  14.081   2.928   6.995
 3079W        W10388   2.157   8.014   0.577
 3080W        W10389   5.655   8.922   7.661
 3081W        W10390   3.404   7.462   9.679
 3082W        W10391   7.696   2.292   8.832
 3083W        W10392   1.484   7.917   6.983
 3084W        W10393   9.228   4.122   7.121
 3085W        W10394  19.580   8.765   8.688
 3086W        W10395   7.596   1.485   9.126
 3087W        W10396   9.893   8.641   0.571
 3088W        W10397  15.321   4.686   9.430
 3089W        W10398   7.276   5.322   7.476
 3090W        W10399   8.661   6.577   5.968
 3091W        W10400   3.742   1.973   9.530
 3092W        W10401  13.784   7.619   7.732
 3093W        W10402  12.966   9.018   8.435
 3094W        W10403  14.205   5.437   6.266
 3095W        W10404   5.174   1.044   7.636
 3096W        W10405  10.685   7.391   6.416
 3097W        W10406   0.205   3.234   9.610
 3098W        W10407   6.527   9.415   7.311
 3099W        W10408  16.792   9.551   0.954
 3100W        W10409  17.017   2.936   0.307
 3101W        W10410   7.009   1.360   0.626
 3102W        W10411   6.560   6.200   6.646
 3103W        W10412  12.826   2.501   9.424
 3104W        W10413   0.649   1.798   6.316
 3105W        W10414   3.702   0.627   7.433
 3106W        W10415  14.797   3.109   8.916
 3107W        W10416  10.501   4.100   7.831
 3108W        W10417   7.013   4.518   5.767
 3109W        W10418  16.314   9.312   7.905
 3110W        W10419   6.729   6.560   9.693
 3111W        W10420   8.212   1.399   8.847
 3112W        W10421  14.070   0.224   7.065
 3113W        W10422  11.569   7.694   6.571
 3114W        W10423  15.394   1.535   9.477
 3115W        W10424  11.698   1.251   6.904
 3116W        W10425   0.045   6.799   7.871
 3117W        W10426   3.341   0.203   8.640
 3118W        W10427   4.848   1.774   8.746
 3119W        W10428   2.085   7.048   8.876
 3120W        W10429  14.232   3.773   6.529
 3121W        W10430   9.112   1.856   9.908
 3122W        W10431  13.753   1.820   5.694
 3123W        W10432   6.187   5.523   9.836
 3124W        W10433   1.405   9.969   0.704
 3125W        W10434   6.941   2.038   0.851
 3126W        W10435  10.619   7.974   9.258
 3127W        W10436  18.176   9.064   8.949
 3128W        W10437  14.842   0.106   8.198
 3129W        W10438   6.308   2.633   0.686
 3130W        W10439  17.348   5.618   7.411
 3131W        W10440   9.681   7.286   6.472
 3132W        W10441  16.539   6.323   6.401
 3133W        W10442  15.954   5.155   8.372
 3134W        W10443  12.110   9.900   0.306
 3135W        W10444  10.716   6.095   9.812
 3136W        W10445   7.510   6.324   9.703
 3137W        W10446   0.927   5.161   6.119
 3138W        W10447   8.536   2.044   7.050
 3139W        W10448   6.755   5.383   7.540
 3140W        W10449   0.791   1.616   0.350
 3141W        W10450   9.011   6.156   6.120
 3142W        W10451   7.292   9.705   7.143
 3143W        W10452  18.589   2.903   7.157
 3144W        W10453   9.820   0.892   7.926
 3145W        W10454   4.942   9.438   7.509
 3146W        W10455  19.369   1.881   0.180
 3147W        W10456  18.947   3.752   6.883
 3148W        W10457   8.396   4.465   0.176
 3149W        W10458  18.543   8.094   8.034
 3150W        W10459   2.492   5.009   7.309
 3151W        W10460   3.937   3.332   8.097
 3152W        W10461   9.418   2.126   9.216
 3153W        W10462   4.294   6.479   8.064
 3154W        W10463   7.303   5.370   6.934
 3155W        W10464   6.241   9.611   6.511
 3156W        W10465   5.120   2.531   9.933
 3157W        W10466   6.415   9.118   9.709
 3158W        W10467   0.319   2.728   6.995
 3159W        W10468   9.666   0.956   8.861
 3160W        W10469   2.245   9.845   7.620
 3161W        W10470  16.431   0.911   6.097
 3162W        W10471   2.238   2.091   8.904
 3163W        W10472   1.920   2.009   6.421
 3164W        W10473   5.052   2.952   0.209
 3165W        W10474   8.749   4.012   9.316
 3166W        W10475   4.764   3.120   8.079
 3167W        W10476  14.263   5.545   7.138
 3168W        W10477   7.502   9.296   0.412
 3169W        W10478   9.078   2.460   6.670
 3170W        W10479  14.876   7.888   7.436
 3171W        W10480  13.968   0.219   8.704
 3172W        W10481   4.876   1.446   7.503
 3173W        W10482   9.040   4.224   8.878
 3174W        W10483   5.957   1.757   7.086
 3175W        W10484   1.769   7.079   6.011
 3176W        W10485   0.123   7.908   6.964
 3177W        W10486   2.471   9.316   8.766
 3178W        W10487  18.368   7.482   7.309
 3179W        W10488  18.727   6.507   0.453
 3180W        W10489   5.918   1.863   8.812
 3181W        W10490   2.405   0.414   6.131
 3182W        W10491  10.867   3.835   6.928
 3183W        W10492  17.254   5.666   9.189
 3184W        W10493   1.978   0.460   8.820
 3185W        W10494  15.764   0.348   0.483
 3186W        W10495   8.446   2.070   1.061
 3187W        W10496  15.609   9.567   6.833
 3188W        W10497  11.511   2.916   9.500
 3189W        W10498   9.778   9.076   8.555
 3190W        W10499  16.089   6.422   0.725
 3191W        W10500   2.215   2.991   8.693
 3192W        W10501  18.847   1.860   0.705
 3193W        W10502  17.324   7.596   6.517
 3194W        W10503   5.637   0.116   9.008
 3195W        W10504  18.436   0.774   9.018
 3196W        W10505  16.919   6.169   6.707
 3197W        W10506   2.776   2.601   6.541
 3198W        W10507  10.936   2.982   7.151
 3199W        W10508  15.730   7.324   7.084
 3200W        W10509  12.622   8.290   7.915
 3201W        W10510   3.191   4.529   8.116
 3202W        W10511  14.787   9.860   9.506
 3203W        W10512  15.661   1.539   0.255
 3204W        W10513   0.162   9.226   8.747
 3205W        W10514   4.146   4.717   7.535
 3206W        W10515   7.414   2.129   0.638
 3207W        W10516  11.928   9.159   0.601
 3208W        W10517  14.904   1.107   8.903
 3209W        W10518  17.772   3.835   7.509
 3210W        W10519   6.760   0.451   7.590
 3211W        W10520  13.382   7.434   9.708
 3212W        W10521   9.196   5.799   8.173
 3213W        W10522  11.180   6.978   7.352
 3214W        W10523  10.371   0.303   6.169
 3215W        W10524   6.653   2.670   8.020
 3216W        W10525  17.211   0.754   7.442
 3217W        W10526   3.518   7.739   7.023
 3218W        W10527  11.884   7.940   0.360
 3219W        W10528  18.733   7.813   9.196
 3220W        W10529   2.634   4.127   0.795
 3221W        W10530   9.722   3.973   0.760
 3222W        W10531  18.935   0.574   7.151
 3223W        W10532  10.128   1.733   7.938
 3224W        W10533   2.682   6.684   0.558
 3225W        W10534   6.487   0.090   6.714
 3226W        W10535  17.746   4.498   6.573
 3227W        W10536  16.016   1.501   0.654
 3228W        W10537  11.745   0.855   8.532
 3229W        W10538   7.488   6.465   0.834
 3230W        W10539   1.898   6.178   8.805
 3231W        W10540   9.997   5.155   9.866
 3232W        W10541  16.220   8.137   6.154
 3233W        W10542  13.375   0.850   0.220
 3234W        W10543   6.288   6.566   9.999
 3235W        W10544   1.673   9.424   6.224
 3236W        W10545  13.131   0.358   8.107
 3237W        W10546   6.075   4.894   7.416
 3238W        W10547  12.463   8.915   8.624
 3239W        W10548   5.118   4.382   0.225
 3240W        W10549   2.383   7.760   8.422
 3241W        W10550   6.344   1.175   8.205
 3242W        W10551  10.743   0.525   9.589
 3243W        W10552  12.330   7.073   8.272
 3244W        W10553   6.777   2.929   9.463
 3245W        W10554  10.417   7.495   9.251
 3246W        W10555  17.923   9.696   6.909
 3247W        W10556  16.899   4.200   6.860
 3248W        W10557  13.680   5.013   6.822
 3249W        W10558   4.134   8.998   8.641
 3250W        W10559   6.003   6.835   0.798
 3251W        W10560   2.812   4.596   0.747
 3252W        W10561  17.808   6.455   8.956
 3253W        W10562   2.755   5.951   8.203
 3254W        W10563  17.954   0.034   6.519
 3255W        W10564   1.089   3.083   0.095
 3256W        W10565   1.508   2.254   8.650
 3257W        W10566   7.955   0.929   7.932
 3258W        W10567   3.787   4.073   0.055
 3259W        W10568   0.194   2.422   8.922
 3260W        W10569   8.756   8.409   0.340
 3261W        W10570   0.800   9.784   6.994
 3262W        W10571  18.629   2.278   6.330
 3263W        W10572  12.970   0.978   0.483
 3264W        W10573   5.827   4.796   9.646
 3265W        W10574  19.589   1.716   9.252
 3266W        W10575  14.358   4.666   9.622
 3267W        W10576   2.839   3.919   9.810
 3268W        W10577  13.359   0.787   0.801
 3269W        W10578   5.949   9.913   8.485
 3270W        W10579   6.832   6.743   6.275
 3271W        W10580   1.617   8.013   8.873
 3272W        W10581   7.785   0.960   1.035
 3273W        W10582  11.586   2.659   7.213
 3274W        W10583   9.629   8.185   0.642
 3275W        W10584  18.643   6.293   9.995
 3276W        W10585   9.895   6.352   6.027
 3277W        W10586   6.942   5.988   8.696
 3278W        W10587  15.442   7.543   0.668
 3279W        W10588   5.650   6.905   6.147
 3280W        W10589  17.804   4.189   8.152
 3281W        W10590   3.649   2.024   1.051
 3282W        W10591   1.009   7.544   9.362
 3283W        W10592   8.152   0.691   9.497
 3284W        W10593   6.697   0.769   9.327
 3285W        W10594  17.827   2.662   9.209
 3286W        W10595  11.993   3.523   9.131
 3287W        W10596  19.337   8.272   5.929
 3288W        W10597  14.538   9.440   9.397
 3289W        W10598  10.172   8.547   6.533
 3290W        W10599   2.142   9.186   6.898
 3291W        W10600  15.779   3.365   9.135
 3292W        W10601  15.934   9.935   6.789
 3293W        W10602   3.978   7.865   7.945
 3294W        W10603  10.770   4.646   9.944
 3295W        W10604  11.764   2.276   7.483
 3296W        W10605   5.735   0.144   6.931
 3297W        W10606   8.920   1.156   8.152
 3298W        W10607   1.912   9.094   7.331
 3299W        W10608   0.772   4.434   7.247
 3300W        W10609   0.818   6.270   7.033
 3301W        W10610  15.258   5.600   6.069
 3302W        W10611   3.233   8.175   9.210
 3303W        W10612   8.745   5.001   8.464
 3304W        W10613   5.358   4.064   7.809
 3305W        W10614   0.493   7.636   9.495
 3306W        W10615   3.723   9.807   6.212
 3307W        W10616   4.366   3.844   7.115
 3308W        W10617   3.728   6.454   0.626
 3309W        W10618  11.964   6.369   7.011
 3310W        W10619  15.502   5.019   6.826
 3311W        W10620   2.500   2.574   8.757
 3312W        W10621  18.182   6.504   9.856
 3313W        W10622  13.004   1.817   0.167
 3314W        W10623   1.656   9.376   6.736
 3315W        W10624   6.770   3.836   9.500
 3316W        W10625   7.778   0.602   9.134
 3317W        W10626   6.424   5.635   9.390
 3318W        W10627  17.064   9.486   9.211
 3319W        W10628   4.739   5.032   0.606
 3320W        W10629   3.540   3.172   0.178
 3321W        W10630  17.378   2.617   9.454
 3322W        W10631  11.883   8.049   6.380
 3323W        W10632  12.111   3.059   1.200
 3324W        W10633  16.910   9.404   8.705
 3325W        W10634   8.209   1.315   7.669
 3326W        W10635  15.306   1.786   9.933
 3327W        W10636   3.496   0.189   0.948
 3328W        W10637   7.096   6.855   9.900
 3329W        W10638  19.250   4.313   0.749
 3330W        W10639  17.270   5.582   9.692
 3331W        W10640  17.494   6.014   9.564
 3332W        W10641  18.259   3.321   7.697
 3333W        W10642  10.518   1.182   7.207
 3334W        W10643   6.188   7.522   6.546
 3335W        W10644   6.814   6.642   6.823
 3336W        W10645   1.485   5.765   8.762
 3337W        W10646  19.291   0.913   8.773
 3338W        W10647   7.281   6.581   7.010
 3339W        W10648  10.286   6.533   6.930
 3340W        W10649  16.242   0.068   7.213
 3341W        W10650  11.731   8.081   6.895
 3342W        W10651   8.500   7.075   7.739
 3343W        W10652   0.821   9.823   9.436
 3344W        W10653   2.098   7.341   8.441
 3345W        W10654   5.619   6.976   6.688
 3346W        W10655   7.682   3.051   6.205
 3347W        W10656   8.709   2.295   8.796
 3348W        W10657   1.564   7.405   8.462
 3349W        W10658  18.668   2.156   8.946
 3350W        W10659  10.390   4.266   0.074
 3351W        W10660  11.310   7.472   8.788
 3352W        W10661   7.923   6.095   8.799
 3353W        W10662   1.552   7.414   9.322
 3354W        W10663  19.202   0.384   6.766
 3355W        W10664   8.983   3.827   8.040
 3356W        W10665  12.194   1.176   9.983
 3357W        W10666   3.471   9.477   6.521
 3358W        W10667  11.521   0.245   0.957
 3359W        W10668  19.331   1.705   6.472
 3360W        W10669   5.893   9.460   7.771
 3361W        W10670   0.788   3.835   7.923
 3362W        W10671   6.311   8.347   0.745
 3363W        W10672  14.028   1.538   8.341
 3364W        W10673   7.477   8.464   9.311
 3365W        W10674   9.078   7.088   7.214
 3366W        W10675  11.237   9.789   9.062
 3367W        W10676  17.419   8.300   6.094
 3368W        W10677   8.902   2.031   9.180
 3369W        W10678  17.951   3.070   9.474
 3370W        W10679  14.428   1.289   8.922
 3371W        W10680  17.782   2.228   8.955
 3372W        W10681  11.493   1.619   6.146
 3373W        W10682   3.268   2.711   0.161
 3374W        W10683  14.561   0.786   7.179
 3375W        W10684   2.414   1.218   8.538
 3376W        W10685  19.431   4.725   8.916
 3377W        W10686  15.923   3.755   5.936
 3378W        W10687  17.954   9.493   7.783
 3379W        W10688  17.904   6.975   6.343
 3380W        W10689  17.547   4.273   7.700
 3381W        W10690  14.536   2.943   0.060
 3382W        W10691  11.097   4.140   0.974
 3383W        W10692   4.138   1.851   9.876
 3384W        W10693  10.982   5.152   6.785
 3385W        W10694   7.341   6.083   7.964
 3386W        W10695   1.534   8.744   7.368
 3387W        W10696   5.911   4.529   7.758
 3388W        W10697  14.037   1.146   9.227
 3389W        W10698   8.029   7.984   0.689
 3390W        W10699   8.407   8.246   9.060
 3391W        W10700  16.461   7.982   9.161
 3392W        W10701   7.620   4.860   9.296
 3393W        W10702   6.917   2.364   6.304
 3394W        W10703   4.887   4.813   8.993
 3395W        W10704  17.384   5.345   8.816
 3396W        W10705   8.732   0.620   0.685
 3397W        W10706  18.347   6.209   8.280
 3398W        W10707   3.158   2.002   0.886
 3399W        W10708   2.777   4.044   0.303
 3400W        W10709  18.572   8.753   6.451
 3401W        W10710   0.433   3.335   7.345
 3402W        W10711   2.422   0.443   8.050
 3403W        W10712   9.419   1.941   0.825
 3404W        W10713  15.361   7.498   7.912
 3405W        W10714  18.259   3.001   8.117
 3406W        W10715   0.059   2.102   7.379
 3407W        W10716   5.975   5.826   7.722
 3408W        W10717  13.039   9.472   8.646
 3409W        W10718   4.929   4.943   6.171
 3410W        W10719  17.123   9.982   9.826
 3411W        W10720   3.758   6.037   8.982
 3412W        W10721  10.996   8.073   5.942
 3413W        W10722  16.634   0.174   8.803
 3414W        W10723   0.321   4.639   8.974
 3415W        W10724   6.232   7.798   8.427
 3416W        W10725  14.138   4.212   6.780
 3417W        W10726  18.545   8.880   9.273
 3418W        W10727   6.062   2.800   8.997
 3419W        W10728  15.190   1.499   6.439
 3420W        W10729  13.496   8.044   7.568
 3421W        W10730  18.714   9.882   7.627
 3422W        W10731  10.180   8.335   7.534
 3423W        W10732   6.391   4.553   6.523
 3424W        W10733   5.271   9.682   0.469
 3425W        W10734   7.594   3.086   0.081
 3426W        W10735  15.106   9.504   9.238
 3427W        W10736  18.181   8.347   0.232
 3428W        W10737   1.544   7.515   6.660
 3429W        W10738  12.756   2.017   9.246
 3430W        W10739   1.892   3.373   6.759
 3431W        W10740   0.761   5.899   8.389
 3432W        W10741  12.729   5.172   6.812
 3433W        W10742  10.543   5.141   9.943
 3434W        W10743   8.393   1.290   0.191
 3435W        W10744   8.094   1.591   9.300
 3436W        W10745   7.029   5.729   7.226
 3437W        W10746   4.537   1.158   9.797
 3438W        W10747   1.139   7.426   8.160
 3439W        W10748  10.661   9.770   7.296
 3440W        W10749   3.578   9.240   0.474
 3441W        W10750  12.086   9.878   9.448
 3442W        W10751  12.758   4.025   9.802
 3443W        W10752   6.617   8.828   0.123
 3444W        W10753  13.561   0.676   7.573
 3445W        W10754  11.099   9.720   7.623
 3446W        W10755  12.267   1.800   9.248
 3447W        W10756   1.646   8.051   9.723
 3448W        W10757  19.231   1.626   5.866
 3449W        W10758  10.418   0.289   9.961
 3450W        W10759   2.545   0.735   1.031
 3451W        W10760  17.510   0.950   0.468
 3452W        W10761   5.309   5.164   8.922
 3453W        W10762   4.916   9.121   8.830
 3454W        W10763  11.317   3.468   0.310
 3455W        W10764   4.811   1.129   6.744
 3456W        W10765  11.802   4.683   7.429
 3457W        W10766  14.002   4.538   8.229
 3458W        W10767   4.345   6.954   8.895
 3459W        W10768   9.296   4.863   6.573
 3460W        W10769  14.903   0.326   9.748
 3461W        W10770  17.658   0.560   7.284
 3462W        W10771   2.349   9.302   7.539
 3463W        W10772  13.629   0.449   0.387
 3464W        W10773  15.244   5.239   0.924
 3465W        W10774   6.583   7.151   0.385
 3466W        W10775   6.634   1.630   8.165
 3467W        W10776   4.954   3.154   6.168
 3468W        W10777  12.785   6.809   9.271
 3469W        W10778   0.359   9.020   8.250
 3470W        W10779  18.702   2.197   7.916
 3471W        W10780  19.563   0.278   9.255
 3472W        W10781  19.124   2.186   7.599
 3473W        W10782  19.684   4.009   8.444
 3474W        W10783   7.873   2.159   0.377
 3475W        W10784  18.443   4.570   8.758
 3476W        W10785  13.007   8.548   7.707
 3477W        W10786   3.589   3.624   7.782
 3478W        W10787  15.404   4.012   7.693
 3479W        W10788  17.507   7.318   8.450
 3480W        W10789  16.195   3.519   9.372
 3481W        W10790   7.946   9.181   6.995
 3482W        W10791   1.981   6.201   0.370
 3483W        W10792  12.062   5.716   9.946
 3484W        W10793  12.180   3.778   8.722
 3485W        W10794  14.861   7.889   8.429
 3486W        W10795  12.855   3.065   7.598
 3487W        W10796   1.660   4.006   0.836
 3488W        W10797  18.975   4.625   8.685
 3489W        W10798  17.346   1.363   0.771
 3490W        W10799   9.142   7.879   9.210
 3491W        W10800   3.630   2.713   9.811
 3492W        W10801   5.195   0.202   6.945
 3493W        W10802   8.941   6.437   7.088
 3494W        W10803   8.026   5.182   6.404
 3495W        W10804  19.169   4.371   9.402
 3496W        W10805  15.333   4.652   9.948
 3497W        W10806  12.592   2.160   6.534
 3498W        W10807   5.448   0.161   6.511
 3499W        W10808   5.782   7.306   9.551
 3500W        W10809  18.622   0.388   8.644
 3501W        W10810  18.155   8.536   9.359
 3502W        W10811   6.100   7.680   7.378
 3503W        W10812   0.514   6.233   0.667
 3504W        W10813  18.199   9.684   8.208
 3505W        W10814   7.613   1.833   7.822
 3506W        W10815   8.339   6.164   7.270
 3507W        W10816  13.561   1.832   7.108
 3508W        W10817  11.015   0.867   8.637
 3509W        W10818   3.422   2.896   0.611
 3510W        W10819   6.751   0.385   8.108
 3511W        W10820  15.569   6.333   0.842
 3512W        W10821   8.390   4.982   0.922
 3513W        W10822   3.002   0.838   9.733
 3514W        W10823  18.578   7.817   9.707
 3515W        W10824   2.058   6.434   8.376
 3516W        W10825  15.891   9.044   7.788
 3517W        W10826  12.459   2.671   0.751
 3518W        W10827  13.815   8.110   6.596
 3519W        W10828  14.537   3.193   6.983
 3520W        W10829  11.839   2.007   6.212
 3521W        W10830  17.888   2.874   7.705
 3522W        W10831   1.490   0.224   9.712
 3523W        W10832   6.989   8.565   1.136
 3524W        W10833   4.186   1.126   9.138
 3525W        W10834   2.053   7.515   0.658
 3526W        W10835  17.017   4.439   7.723
 3527W        W10836   6.564   5.200   0.031
 3528W        W10837   7.340   3.982   7.151
 3529W        W10838  12.992   7.104   0.720
 3530W        W10839   3.163   4.696   6.591
 3531W        W10840   5.940   9.759   6.080
 3532W        W10841  14.621   3.746   0.525
 3533W        W10842  17.895   3.178   8.446
 3534W        W10843  12.337   6.144   8.230
 3535W        W10844  12.400   9.365   6.842
 3536W        W10845  17.009   9.735   6.898
 3537W        W10846  17.629   0.832   6.087
 3538W        W10847  16.565   7.642   8.413
 3539W        W10848  19.284   1.581   6.979
 3540W        W10849  15.783   4.719   9.713
 3541W        W10850   4.275   6.020   7.277
 3542W        W10851   0.536   1.890   7.305
 3543W        W10852   0.735   4.903   9.709
 3544W        W10853  13.413   9.227   8.919
 3545W        W10854  10.757   3.443   7.244
 3546W        W10855  17.238   0.307   7.167
 3547W        W10856   5.947   2.263   7.279
 3548W        W10857   7.357   7.098   8.190
 3549W        W10858   4.078   1.466   8.783
 3550W        W10859   5.624   1.592   9.151
 3551W        W10860  19.823   6.895   6.502
 3552W        W10861   5.692   0.630   8.395
 3553W        W10862  12.820   8.517   7.247
 3554W        W10863  13.150   1.301   9.087
 3555W        W10864  13.411   8.852   0.769
 3556W        W10865   8.168   6.457   6.155
 3557W        W10866  10.872   0.112   7.899
 3558W        W10867  16.579   2.013   0.401
 3559W        W10868  11.643   1.852   7.956
 3560W        W10869   2.041   6.008   9.559
 3561W        W10870  10.785   6.369   6.983
 3562W        W10871  16.196   8.876   8.998
 3563W        W10872   9.464   0.238   6.638
 3564W        W10873  12.106   7.608   6.498
 3565W        W10874  10.351   3.201   7.044
 3566W        W10875  12.791   4.916   9.110
 3567W        W10876  15.920   1.223   8.986
 3568W        W10877   1.085   8.049   8.888
 3569W        W10878  16.258   2.347   0.195
 3570W        W10879   3.741   3.668   6.529
 3571W        W10880   0.898   5.338   7.626
 3572W        W10881  13.691   8.370   8.777
 3573W        W10882  12.379   7.630   6.936
 3574W        W10883   2.575   8.052   7.857
 3575W        W10884  16.912   8.817   7.585
 3576W        W10885   1.737   0.736   6.026
 3577W        W10886   4.656   6.132   8.465
 3578W        W10887   7.765   3.695   7.975
 3579W        W10888  15.781   1.644   7.490
 3580W        W10889  18.375   1.171   7.720
 3581W        W10890  14.583   1.208   9.941
 3582W        W10891  15.606   1.193   9.861
 3583W        W10892   1.143   1.593   6.025
 3584W        W10893  19.596   6.437   0.209
 3585W        W10894   9.722   0.479   9.711
 3586W        W10895  18.850   8.309   8.893
 3587W        W10896  12.073   7.261   9.809
 3588W        W10897  13.001   9.669   6.319
 3589W        W10898   6.805   9.934   8.325
 3590W        W10899  19.641   1.564   0.731
 3591W        W10900   9.138   0.678   8.193
 3592W        W10901   0.408   0.388   8.285
 3593W        W10902   4.762   1.588   7.024
 3594W        W10903   6.045   0.876   1.653
 3595W        W10904   7.261   3.669   7.924
 3596W        W10905   6.948   9.610   7.532
 3597W        W10906   1.714   5.173   6.777
 3598W        W10907   5.345   9.349   8.998
 3599W        W10908  12.448   0.695   9.161
 3600W        W10909   2.358   1.518   0.163
 3601W        W10910   6.357   3.453   9.180
 3602W        W10911  19.259   5.042   6.712
 3603W        W10912   3.284   8.486   9.608
 3604W        W10913   3.766   1.438   9.241
 3605W        W10914  11.579   6.145   7.562
 3606W        W10915   6.196   3.217   8.725
 3607W        W10916   8.134   0.436   7.825
 3608W        W10917  13.171   1.328   0.136
 3609W        W10918   1.199   1.280   7.805
 3610W        W10919  14.761   0.811   9.624
 3611W        W10920  16.782   4.003   7.863
 3612W        W10921   2.951   7.796   0.080
 3613W        W10922  19.272   8.673   0.582
 3614W        W10923  10.020   0.679   6.690
 3615W        W10924   8.161   4.616   9.730
 3616W        W10925  15.385   2.503   0.391
 3617W        W10926   6.103   6.152   6.331
 3618W        W10927  10.934   2.473   7.107
 3619W        W10928   6.370   1.627   8.927
 3620W        W10929   7.408   2.232   0.126
 3621W        W10930   9.788   8.214   8.774
 3622W        W10931  10.174   5.454   0.816
 3623W        W10932   8.651   5.867   9.325
 3624W        W10933  12.603   8.067   7.118
 3625W        W10934  11.576   1.724   0.602
 3626W        W10935   1.718   3.674   6.366
 3627W        W10936   1.019   4.250   5.918
 3628W        W10937   4.661   6.896   6.905
 3629W        W10938  16.273   6.419   0.214
 3630W        W10939   8.494   3.544   9.278
 3631W        W10940   8.244   4.632   8.861
 3632W        W10941  11.426   0.172   9.954
 3633W        W10942   1.727   0.980   9.963
 3634W        W10943  13.381   2.193   7.833
 3635W        W10944  18.101   3.496   9.725
 3636W        W10945   8.474   7.901   8.126
 3637W        W10946   1.943   9.371   8.756
 3638W        W10947  14.825   9.697   1.013
 3639W        W10948   3.032   0.821   8.825
 3640W        W10949   8.494   2.860   9.627
 3641W        W10950   3.240   6.165   8.930
 3642W        W10951   2.999   8.557   7.274
 3643W        W10952  10.169   5.846   0.462
 3644W        W10953   8.833   7.244   0.009
 3645W        W10954  14.867   7.663   9.961
 3646W        W10955  13.963   9.760   7.894
 3647W        W10956   0.346   0.135   0.835
 3648W        W10957  16.479   2.085   7.097
 3649W        W10958  14.059   3.115   8.336
 3650W        W10959   4.884   3.554   8.376
 3651W        W10960   4.169   5.418   6.037
 3652W        W10961  18.799   9.101   9.831
 3653W        W10962   3.887   8.378   7.970
 3654W        W10963  19.009   5.147   0.946
 3655W        W10964   7.126   0.929   0.881
 3656W        W10965  12.857   6.573   9.725
 3657W        W10966  11.037   8.532   7.072
 3658W        W10967   2.042   2.857   6.582
 3659W        W10968   3.713   9.905   7.194
 3660W        W10969  16.487   1.509   0.343
 3661W        W10970  16.723   8.670   8.901
 3662W        W10971   8.926   8.672   7.429
 3663W        W10972   8.442   5.453   8.465
 3664W        W10973  14.242   2.537   0.278
 3665W        W10974   2.519   0.736   8.895
 3666W        W10975  11.202   3.404   6.978
 3667W        W10976   7.627   6.318   6.770
 3668W        W10977   0.628   5.403   9.763
 3669W        W10978  16.077   3.638   7.212
 3670W        W10979  19.054   1.479   8.380
 3671W        W10980   1.451   6.895   7.245
 3672W        W10981   2.754   6.481   7.481
 3673W        W10982  16.015   3.580   7.701
 3674W        W10983   7.571   5.921   0.502
 3675W        W10984  17.437   3.066   9.185
 3676W        W10985   1.125   6.685   0.671
 3677W        W10986  12.619   3.614   0.637
 3678W        W10987  10.038   3.628   8.113
 3679W        W10988  15.712   7.739   8.798
 3680W        W10989   2.588   9.271   6.626
 3681W        W10990   6.293   0.477   6.272
 3682W        W10991  18.720   2.594   9.186
 3683W        W10992  14.423   0.309   7.918
 3684W        W10993  18.221   2.060   8.176
 3685W        W10994   3.153   4.166   0.676
 3686W        W10995  12.452   2.219   8.139
 3687W        W10996   7.368   1.613   7.421
 3688W        W10997   9.982   4.241   9.776
 3689W        W10998   7.572   7.044   7.725
 3690W        W10999   0.137   9.939   8.203
 3691W        W11000   8.766   5.944   7.079
 3692W        W11001   1.605   5.510   0.786
 3693W        W11002  10.957   9.648   8.649
 3694W        W11003   0.124   2.513   0.927
 3695W        W11004  13.065   2.767   9.056
 3696W        W11005  18.688   1.286  10.002
 3697W        W11006  19.685   7.356   9.556
 3698W        W11007   2.086   7.051   9.741
 3699W        W11008   5.441   0.236   8.011
 3700W        W11009   4.154   6.482   7.504
 3701W        W11010   4.929   9.926   9.515
 3702W        W11011  17.829   2.651   0.238
 3703W        W11012   3.396   2.643   8.202
 3704W        W11013  12.186   3.491   0.888
 3705W        W11014   5.963   8.892   9.458
 3706W        W11015   1.829   7.477   7.610
 3707W        W11016  11.693   6.787   6.903
 3708W        W11017  15.411   4.860   7.813
 3709W        W11018   1.040   7.597   6.560
 3710W        W11019  12.838   2.551   8.434
 3711W        W11020   3.300   9.719   0.507
 3712W        W11021  14.923   7.775   7.932
 3713W        W11022  10.743   1.257   9.887
 3714W        W11023  12.783   8.069   8.363
 3715W        W11024  15.521   6.641   7.257
 3716W        W11025  19.091   4.380   9.929
 3717W        W11026   4.485   9.614   9.357
 3718W        W11027  19.458   0.638   0.553
 3719W        W11028  11.435   5.493   6.338
 3720W        W11029  12.444   8.927   6.044
 3721W        W11030  17.525   0.339   9.754
 3722W        W11031   1.193   4.504   9.045
 3723W        W11032  13.004   4.492   9.805
 3724W        W11033   0.780   4.361   7.760
 3725W        W11034  18.474   7.941   7.506
 3726W        W11035  12.556   5.317   0.338
 3727W        W11036   1.305   6.406   7.212
 3728W        W11037  12.051   3.101   0.189
 3729W        W11038  11.698   8.204   9.880
 3730W        W11039   9.015   5.439   8.497
 3731W        W11040  12.627   9.827   0.362
 3732W        W11041  17.109   9.442   7.364
 3733W        W11042  12.344   3.781   6.824
 3734W        W11043  13.991   1.129   8.678
 3735W        W11044   0.790   4.304   9.949
 3736W        W11045   8.948   3.054   0.371
 3737W        W11046   1.668   0.261   9.226
 3738W        W11047  19.972   8.750   0.879
 3739W        W11048   6.625   1.672   9.387
 3740W        W11049   6.391   0.946   0.167
 3741W        W11050   3.130   8.733   8.453
 3742W        W11051  12.138   1.283   6.646
 3743W        W11052   8.534   7.425   0.836
 3744W        W11053  18.299   5.166   0.583
 3745W        W11054   2.381   7.112   6.708
 3746W        W11055   0.370   1.427   8.906
 3747W        W11056  10.076   0.845   0.557
 3748W        W11057   5.212   4.138   0.665
 3749W        W11058   3.503   6.269   9.406
 3750W        W11059   9.064   1.372   8.641
 3751W        W11060  13.157   9.238   9.950
 3752W        W11061  10.904   3.756   9.968
 3753W        W11062  10.668   4.163   0.682
 3754W        W11063  12.309   6.603   6.236
 3755W        W11064   0.699   3.408   6.521
 3756W        W11065   2.600   0.907   7.569
 3757W        W11066  14.492   9.930   6.635
 3758W        W11067  11.114   2.902   6.002
 3759W        W11068   8.213   6.446   9.060
 3760W        W11069   4.328   7.392   8.503
 3761W        W11070   2.795   8.839   0.738
 3762W        W11071  13.412   6.858   0.584
 3763W        W11072   6.251   6.487   9.476
 3764W        W11073   7.640   0.277   7.601
 3765W        W11074   6.638   6.119   0.529
 3766W        W11075  19.898   0.000   9.906
 3767W        W11076  -0.000   1.926   9.479
 3768W        W11077   9.932   2.963   9.488
 3769W        W11078  11.645   9.143   9.271
 3770W        W11079   7.857   7.416   7.150
 3771W        W11080   3.019   6.571   6.184
 3772W        W11081  12.874   1.477   0.544
 3773W        W11082  11.312   5.796   7.841
 3774W        W11083  14.403   1.658   9.758
 3775W        W11084   3.453   2.153   8.348
 3776W        W11085   1.945   1.483   7.085
 3777W        W11086  18.868   6.480   7.972
 3778W        W11087   5.925   9.239   9.828
 3779W        W11088   5.190   9.024   7.320
 3780W        W11089   4.485   1.961   9.503
 3781W        W11090   7.679   0.124   8.553
 3782W        W11091   2.377   8.801   6.687
 3783W        W11092   9.762   2.152   6.637
 3784W        W11093  16.392   5.343   9.553
 3785W        W11094   3.863   1.982   8.647
 3786W        W11095  16.663   5.285   7.303
 3787W        W11096  13.504   3.588   8.562
 3788W        W11097   2.554   4.714   9.470
 3789W        W11098  16.468   8.470   6.914
 3790W        W11099   8.349   7.418   6.404
 3791W        W11100  19.533   2.326   0.414
 3792W        W11101  11.183   9.158   6.392
 3793W        W11102   7.149   3.688   6.758
 3794W        W11103   8.670   8.674   9.132
 3795W        W11104  13.537   2.269   8.386
 3796W        W11105   7.539   0.252   0.366
 3797W        W11106   2.968   1.957   6.984
 3798W        W11107  10.268   6.128   6.328
 3799W        W11108   3.363   8.413   0.103
 3800W        W11109   1.178   6.546   9.706
 3801W        W11110   4.315   8.742   0.692
 3802W        W11111   1.233   6.075   8.452
 3803W        W11112   6.488   5.782   6.962
 3804W        W11113  13.397   3.176   6.385
 3805W        W11114   7.891   7.360   6.631
 3806W        W11115   7.261   3.013   8.374
 3807W        W11116   4.842   7.140   6.486
 3808W        W11117   1.763   5.197   8.000
 3809W        W11118  13.340   8.913   7.010
 3810W        W11119  14.964   7.526   6.491
 3811W        W11120   3.700   5.288   8.575
 3812W        W11121   6.829   9.466   8.016
 3813W        W11122  16.389   4.130   0.649
 3814W        W11123  19.510   4.956   8.424
 3815W        W11124   6.361   0.531   9.647
 3816W        W11125  15.610   2.320   7.590
 3817W        W11126   4.168   9.602   7.965
 3818W        W11127   4.196   1.561   8.283
 3819W        W11128  12.174   5.081   7.361
 3820W        W11129  13.998   0.193   8.182
 3821W        W11130   0.342   4.500   8.468
 3822W        W11131  15.080   1.978   0.816
 3823W        W11132   7.604   3.540   6.988
 3824W        W11133  18.457   7.024   9.526
 3825W        W11134  16.236   5.532  -0.000
 3826W        W11135  19.726   9.792   8.528
 3827W        W11136  18.170   6.583   6.921
 3828W        W11137  18.703   1.516   1.048
 3829W        W11138   0.709   9.860   8.907
 3830W        W11139  10.955   1.576   7.449
 3831W        W11140  16.678   7.515   7.111
 3832W        W11141   4.233   9.763   6.450
 3833W        W11142  11.201   1.192   9.107
 3834W        W11143   5.903   9.277   6.284
 3835W        W11144   7.121   9.314   9.461
 3836W        W11145   6.662   6.473   8.655
 3837W        W11146   6.923   5.660   6.730
 3838W        W11147  14.533   7.546   6.181
 3839W        W11148   7.696   0.497   8.121
 3840W        W11149  14.060   8.163   0.457
 3841W        W11150   3.549   3.102   9.233
 3842W        W11151  17.158   8.811   9.899
 3843W        W11152  17.020   2.940   8.402
 3844W        W11153   9.946   7.732   0.703
 3845W        W11154  12.706   0.212   6.820
 3846W        W11155   6.917   5.860   7.705
 3847W        W11156   4.734   8.816   8.065
 3848W        W11157   0.809   4.742   0.200
 3849W        W11158  18.359   6.066   9.634
 3850W        W11159  18.980   5.435   7.480
 3851W        W11160  12.363   7.991   6.228
 3852W        W11161   3.448   5.087   9.885
 3853W        W11162   9.653   7.055   9.429
 3854W        W11163   1.363   3.611   7.439
 3855W        W11164  10.455   8.426   0.171
 3856W        W11165  18.015   4.628   7.979
 3857W        W11166  13.164   8.911   0.337
 3858W        W11167   2.775   2.663   0.069
 3859W        W11168  11.673   0.155   9.508
 3860W        W11169   3.283   4.071   0.176
 3861W        W11170  11.019   3.247   8.241
 3862W        W11171   8.288   7.479   7.436
 3863W        W11172  14.181   1.572   7.474
 3864W        W11173   9.244   0.544   0.615
 3865W        W11174  13.463   3.545   8.055
 3866W        W11175   5.541   5.913   8.552
 3867W        W11176  17.313   1.684   8.447
 3868W        W11177   9.503   6.089   9.092
 3869W        W11178  13.117   3.330   6.787
 3870W        W11179  10.214   0.484   9.541
 3871W        W11180   5.535   3.738   6.468
 3872W        W11181   5.526   2.142   9.018
 3873W        W11182   2.450   9.417   9.579
 3874W        W11183   4.231   2.783   6.694
 3875W        W11184  10.487   2.227   0.982
 3876W        W11185   5.274   0.188   0.332
 3877W        W11186   0.156   8.573   8.115
 3878W        W11187  19.616   3.957   0.576
 3879W        W11188  19.727   6.113   9.447
 3880W        W11189  19.295   3.035   9.676
 3881W        W11190  16.856   6.540   7.515
 3882W        W11191   7.691   5.698   8.034
 3883W        W11192  15.053   1.065   7.312
 3884W        W11193  10.910   9.263   7.790
 3885W        W11194  15.123   6.140   8.713
 3886W        W11195  11.327   3.961   0.216
 3887W        W11196   4.299   8.278   7.049
 3888W        W11197  11.795   3.841   6.800
 3889W        W11198  18.070   1.455   6.410
 3890W        W11199   7.293   6.819   8.590
 3891W        W11200  13.847   7.441   8.845
 3892W        W11201  14.599   0.964   0.964
 3893W        W11202  11.750   6.924   0.045
 3894W        W11203  17.709   6.864   8.302
 3895W        W11204  15.802   4.587   0.767
 3896W        W11205  18.428   3.082   0.220
 3897W        W11206   5.321   3.404   0.081
 3898W        W11207   4.373   3.826   7.668
 3899W        W11208  15.958   3.343   0.293
 3900W        W11209   1.241   0.636   9.914
 3901W        W11210  13.924   3.077   6.508
 3902W        W11211   1.781   2.938   8.433
 3903W        W11212  15.467   5.111   8.243
 3904W        W11213  12.571   1.076   7.306
 3905W        W11214  12.111   9.774   7.346
 3906W        W11215  19.755   2.152   8.999
 3907W        W11216   7.107   4.057   7.619
 3908W        W11217  12.295   3.182   8.868
 3909W        W11218   2.466   1.223   9.081
 3910W        W11219  10.077   4.561   8.091
 3911W        W11220  16.499   0.568   7.922
 3912W        W11221  12.338   6.162   9.244
 3913W        W11222   4.632   3.583   9.332
 3914W        W11223   6.505   2.077   0.093
 3915W        W11224  18.163   1.175   8.715
 3916W        W11225  19.857   8.353   8.880
 3917W        W11226  14.409   0.813   8.680
 3918W        W11227  18.939   9.332   8.999
 3919W        W11228  13.070   4.498   9.305
 3920W        W11229  19.627   6.561   9.682
 3921W        W11230   9.904   5.375   7.564
 3922W        W11231  15.019   4.968   7.033
 3923W        W11232   2.424   5.019   6.818
 3924W        W11233  10.172   2.494   9.435
 3925W        W11234  13.250   1.791   0.751
 3926W        W11235   5.117   8.524   9.500
 3927W        W11236  14.795   4.538   6.815
 3928W        W11237   8.864   0.322   0.308
 3929W        W11238  17.504   5.042   0.049
 3930W        W11239  16.017   9.383   6.544
 3931W        W11240   2.720   0.608   8.432
 3932W        W11241  16.892   2.069   8.927
 3933W        W11242  16.415   0.823   8.499
 3934W        W11243  14.566   8.865   0.694
 3935W        W11244   9.675   8.184   9.687
 3936W        W11245   6.681   1.353   8.603
 3937W        W11246  15.703   5.557   9.280
 3938W        W11247  14.785   9.882   0.010
 3939W        W11248   1.353   9.849   9.354
 3940W        W11249  16.046   1.977   0.473
 3941W        W11250   4.541   1.608   9.123
 3942W        W11251  13.474   5.994   0.978
 3943W        W11252  18.354   0.805   9.535
 3944W        W11253  16.298   6.045   8.711
 3945W        W11254  15.354   2.361   6.671
 3946W        W11255  17.843   3.909   9.143
 3947W        W11256  10.683   6.039   6.614
 3948W        W11257  16.470   4.824   7.109
 3949W        W11258   8.475   3.853   6.491
 3950W        W11259   5.248   1.704   9.846
 3951W        W11260  11.174   5.848   9.781
 3952W        W11261   6.171   7.936   6.920
 3953W        W11262  11.663   8.506   8.027
 3954W        W11263  12.995   5.762   0.394
 3955W        W11264  19.663   5.594   0.631
 3956W        W11265   4.632   3.481   6.381
 3957W        W11266   5.173   8.978   9.296
 3958W        W11267  11.473   6.973   9.603
 3959W        W11268   2.055   0.169   7.284
 3960W        W11269   7.999   4.158   8.845
 3961W        W11270  10.180   6.812   8.563
 3962W        W11271   4.823   3.975   6.949
 3963W        W11272   5.477   2.095   7.448
 3964W        W11273  12.071   7.834   8.975
 3965W        W11274   6.626   5.090   8.678
 3966W        W11275   9.747   7.879   7.269
 3967W        W11276  19.142   4.031   0.343
 3968W        W11277   6.838   2.166   8.800
 3969W        W11278  14.430   3.366   9.243
 3970W        W11279   9.793   3.988   8.413
 3971W        W11280  10.406   1.082   8.487
 3972W        W11281  17.995   7.785   9.707
 3973W        W11282  12.136   4.237   6.754
 3974W        W11283   4.922   9.381   0.194
 3975W        W11284   4.599   9.271   9.786
 3976W        W11285  19.884   4.327   6.752
 3977W        W11286   2.283   1.931   0.491
 3978W        W11287  10.272   4.073   9.375
 3979W        W11288  11.230   4.324   9.852
 3980W        W11289  11.799   3.991   8.443
 3981W        W11290  11.566   7.379   9.903
 3982W        W11291   6.683   9.952   7.805
 3983W        W11292   8.414   5.398   9.324
 3984W        W11293  10.493   6.182   0.264
 3985W        W11294   0.970   2.163   9.306
 3986W        W11295  13.119   5.885   5.689
 3987W        W11296  16.668   3.656   6.778
 3988W        W11297   5.598   8.426   7.466
 3989W        W11298  19.301   3.537   0.489
 3990W        W11299   1.928   4.980   9.387
 3991W        W11300   8.084   4.653   0.657
 3992W        W11301  10.583   7.859   8.760
 3993W        W11302   0.786   8.393   7.436
 3994W        W11303  13.414   1.813   6.095
 3995W        W11304   1.209   1.667   7.039
 3996W        W11305   0.645   0.590   8.863
 3997W        W11306   7.664   4.951   0.638
 3998W        W11307   7.459   0.860   7.836
 3999W        W11308  10.870   6.245   0.935
 4000W        W11309   3.056   4.219   6.767
 4001W        W11310   6.866   9.250   9.920
 4002W        W11311  10.990   5.473   6.069
 4003W        W11312   8.651   2.384   7.904
 4004W        W11313   0.210   6.736   7.397
 4005W        W11314  13.092   6.059   8.840
 4006W        W11315  17.947   6.948   9.693
 4007W        W11316  14.971   1.405   8.378
 4008W        W11317   9.038   2.781   6.270
 4009W        W11318   8.346   6.127   7.788
 4010W        W11319   9.625   8.554   6.720
 4011W        W11320   0.262   7.181   8.524
 4012W        W11321  15.719   6.801   0.641
 4013W        W11322   2.230   0.822   5.849
 4014W        W11323   0.500   2.039   0.177
 4015W        W11324  12.612   3.573   0.098
 4016W        W11325  11.514   8.860   0.652
 4017W        W11326  17.338   2.431   7.270
 4018W        W11327  18.470   0.569   0.824
 4019W        W11328  19.083   9.682   7.330
 4020W        W11329  13.838   1.924   8.624
 4021W        W11330  11.700   9.018   7.957
 4022W        W11331   0.482   0.245   9.792
 4023W        W11332   7.711   5.526   6.130
 4024W        W11333   2.602   9.395   7.108
 4025W        W11334  17.333   0.651   6.450
 4026W        W11335   4.221   4.012   9.791
 4027W        W11336   8.396   7.931   7.142
 4028W        W11337   4.073   1.838   9.135
 4029W        W11338  16.212   8.808   9.961
 4030W        W11339  18.399   6.887   0.539
 4031W        W11340   3.156   7.284   7.801
 4032W        W11341   5.206   3.194   7.784
 4033W        W11342   3.341   3.233   8.016
 4034W        W11343   6.197   5.642   8.938
 4035W        W11344   6.678   6.500   9.171
 4036W        W11345   1.359   7.623   9.756
 4037W        W11346  10.430   0.189   8.625
 4038W        W11347   2.196   2.403   6.763
 4039W        W11348   7.984   3.505   9.288
 4040W        W11349   9.155   4.054   0.133
 4041W        W11350  11.636   2.824   7.698
 4042W        W11351  15.204   6.724   0.776
 4043W        W11352  10.794   6.366   8.722
 4044W        W11353  19.914   0.347   8.453
 4045W        W11354  18.683   1.726   7.674
 4046W        W11355  11.662   9.151   9.775
 4047W        W11356   2.614   0.870   6.279
 4048W        W11357   8.321   3.134   7.562
 4049W        W11358  14.717   1.209   6.950
 4050W        W11359  13.089   2.554   7.110
 4051W        W11360   9.389   8.161   6.453
 4052W        W11361   9.258   4.090   9.315
 4053W        W11362   6.513   3.626   8.288
 4054W        W11363  19.145   2.396   8.911
 4055W        W11364   9.716   5.598   9.889
 4056W        W11365   7.205   3.948   8.454
 4057W        W11366   5.271   9.846   7.728
 4058W        W11367  11.958   6.824   9.591
 4059W        W11368  13.500   4.457   0.151
 4060W        W11369  15.342   8.600   9.832
 4061W        W11370  10.792   2.044   0.287
 4062W        W11371   5.827   4.938   0.580
 4063W        W11372   8.942   5.422   9.349
 4064W        W11373  15.064   8.257   8.084
 4065W        W11374   1.127   8.446   9.307
 4066W        W11375   1.764   1.153   6.316
 4067W        W11376   9.607   9.093   9.727
 4068W        W11377   0.834   8.930   6.507
 4069W        W11378   2.171   8.273   9.254
 4070W        W11379   3.763   8.163   0.312
 4071W        W11380   3.253   5.416   1.105
 4072W        W11381  17.238   9.497   9.702
 4073W        W11382   0.763   2.022   7.756
 4074W        W11383   4.552   4.503   7.907
 4075W        W11384   7.311   0.581   6.808
 4076W        W11385   3.943   9.362   6.364
 4077W        W11386  14.459   5.892   9.987
 4078W        W11387  17.848   1.387   6.918
 4079W        W11388  18.186   0.382   6.820
 4080W        W11389  17.024   3.427   8.601
 4081W        W11390  10.849   5.200   7.454
 4082W        W11391   7.574   3.009   0.572
 4083W        W11392  10.752   9.268   8.348
 4084W        W11393  10.164   7.999   8.479
 4085W        W11394  17.913   1.834   0.765
 4086W        W11395  16.269   3.070   5.519
 4087W        W11396   9.642   8.827   9.249
 4088W        W11397   3.807   7.314   7.043
 4089W        W11398  12.787   0.484   0.136
 4090W        W11399  13.705   8.445   9.691
 4091W        W11400  12.034   2.599   0.458
 4092W        W11401  16.988   7.444   0.634
 4093W        W11402   8.818   9.664   8.112
 4094W        W11403   6.260   2.356   7.707
 4095W        W11404  14.246   3.148   0.425
 4096W        W11405   6.764   4.674   8.942
 4097W        W11406   2.740   8.044   7.337
 4098W        W11407  19.655   4.554   9.353
 4099W        W11408   9.980   0.177   8.862
 4100W        W11409  13.131   7.727   8.506
 4101W        W11410  12.070   0.585   7.369
 4102W        W11411   5.118   5.567   6.676
 4103W        W11412  19.560   6.981   7.922
 4104W        W11413   3.570   0.563   6.714
 4105W        W11414  12.085   4.363   9.599
 4106W        W11415   3.683   8.429   9.297
 4107W        W11416   6.140   6.160   0.309
 4108W        W11417   4.264   5.874   8.263
 4109W        W11418   1.638   4.447   8.332
 4110W        W11419  15.982   8.526   9.405
 4111W        W11420  14.880   4.568   0.224
 4112W        W11421   5.999   0.158   9.778
 4113W        W11422  19.074   1.482   8.892
 4114W        W11423   9.323   9.185   0.147
 4115W        W11424  11.467   8.663   9.784
 4116W        W11425   9.945   8.980   8.095
 4117W        W11426   7.028   8.446   6.102
 4118W        W11427  19.376   2.203   8.057
 4119W        W11428   2.194   4.903   0.389
 4120W        W11429   2.295   3.758   9.318
 4121W        W11430   4.176   9.458   0.690
 4122W        W11431   7.872   5.036   9.712
 4123W        W11432   2.175   1.899   6.846
 4124W        W11433   4.945   0.352   6.496
 4125W        W11434   2.858   0.107   9.306
 4126W        W11435   2.372   5.177   9.578
 4127W        W11436  19.790   2.140   0.870
 4128W        W11437   6.143   6.438   8.402
 4129W        W11438   7.347   5.506   0.285
 4130W        W11439   3.178   9.441   9.219
 4131W        W11440  19.472   3.596   8.204
 4132W        W11441   2.935   5.484   8.031
 4133W        W11442   0.629   1.407   7.086
 4134W        W11443   1.018   4.870   6.604
 4135W        W11444   0.617   5.989   7.900
 4136W        W11445   1.853   9.728   0.620
 4137W        W11446  19.173   9.342   6.769
 4138W        W11447  18.296   9.084   0.645
 4139W        W11448   6.733   7.662   8.609
 4140W        W11449   2.248   8.842   0.902
 4141W        W11450   8.540   5.290   6.734
 4142W        W11451   0.509   5.357   0.647
 4143W        W11452  14.335   9.387   7.384
 4144W        W11453   2.454   4.826   9.949
 4145W        W11454   6.266   3.775   8.774
 4146W        W11455  17.015   7.301   9.698
 4147W        W11456   5.897   4.651   8.279
 4148W        W11457  10.169   8.197   8.027
 4149W        W11458   3.401   8.562   7.943
 4150W        W11459  17.426   1.754   9.973
 4151W        W11460   3.712   9.238   9.964
 4152W        W11461  15.388   6.025   8.308
 4153W        W11462   5.722   8.820   6.631
 4154W        W11463  18.208   2.141   7.121
 4155W        W11464  10.569   5.914   7.958
 4156W        W11465  19.960   8.129   6.528
 4157W        W11466  10.052   2.452   6.956
 4158W        W11467  16.829   7.507   7.994
 4159W        W11468  14.601   2.158   7.950
 4160W        W11469  18.695   2.631   7.622
 4161W        W11470   3.798   9.812   0.744
 4162W        W11471  16.259   1.812   0.012
 4163W        W11472   9.202   7.133   9.676
 4164W        W11473   0.609   3.966   7.452
 4165W        W11474  16.347   6.268   8.263
 4166W        W11475   6.239   5.304   0.523
 4167W        W11476   4.778   8.812   7.048
 4168W        W11477  11.366   1.223   8.609
 4169W        W11478   5.356   5.098   0.703
 4170W        W11479  14.153   4.913   6.078
 4171W        W11480   2.011   1.756   7.780
 4172W        W11481  19.105   7.209   7.831
 4173W        W11482  16.585   6.728   6.083
 4174W        W11483   6.614   0.006   7.294
 4175W        W11484  14.420   7.982   7.638
 4176W        W11485  19.431   3.142   0.812
 4177W        W11486  18.115   7.609   6.878
 4178W        W11487  19.347   9.791   9.236
 4179W        W11488   2.973   6.783   7.117
 4180W        W11489  15.795   4.638   9.216
 4181W        W11490  12.478   2.548   5.788
 4182W        W11491   1.513   4.713   6.597
 4183W        W11492  14.977   4.050   7.392
 4184W        W11493  10.095   5.039   7.217
 4185W        W11494  19.081   2.474   8.382
 4186W        W11495  19.420   3.943   9.288
 4187W        W11496  15.278   4.582   6.680
 4188W        W11497   0.561   6.353   8.355
 4189W        W11498  12.931   8.659   6.778
 4190W        W11499  15.998   2.783   7.122
 4191W        W11500   0.222   6.293   9.528
 4192W        W11501   8.381   2.993   6.646
 4193W        W11502  15.938   1.922   7.038
 4194W        W11503   0.908   1.229   8.235
 4195W        W11504   8.204   0.646   8.295
 4196W        W11505   0.815   0.893   0.853
 4197W        W11506   9.358   3.792   8.872
 4198W        W11507  17.726   7.294   8.918
 4199W        W11508   2.162   8.413   1.162
 4200W        W11509  10.693   5.504   0.917
 4201W        W11510   5.294   8.768   0.789
 4202W        W11511   2.672   7.929   9.676
 4203W        W11512   1.159   3.887   0.745
 4204W        W11513  12.966   6.250   7.547
 4205W        W11514   3.723   4.939   9.230
 4206W        W11515   4.466   1.091   6.314
 4207W        W11516   4.431   7.454   9.004
 4208W        W11517   5.317   3.629   7.535
 4209W        W11518  19.809   0.857   0.835
 4210W        W11519  16.413   6.773   6.664
 4211W        W11520   9.495   5.976   5.984
 4212W        W11521  12.834   1.640   8.362
 4213W        W11522   6.309   8.874   7.538
 4214W        W11523  17.988   5.835   8.330
 4215W        W11524  16.143   3.712   6.728
 4216W        W11525   7.156   6.965   6.610
 4217W        W11526  16.432   8.726   0.677
 4218W        W11527   1.074   8.343   8.426
 4219W        W11528   2.331   7.686   7.557
 4220W        W11529   4.373   6.823   6.490
 4221W        W11530   8.174   9.350   8.658
 4222W        W11531  12.559   8.745   9.116
 4223W        W11532  17.177   3.441   0.298
 4224W        W11533   0.642   9.301   6.176
 4225W        W11534  12.567   1.883   0.461
 4226W        W11535  19.121   0.985   8.250
 4227W        W11536   1.699   9.775   8.984
 4228W        W11537   7.447   4.434   8.466
 4229W        W11538  12.176   6.767   6.743
 4230W        W11539   8.631   9.798   9.802
 4231W        W11540   2.814   2.318   9.689
 4232W        W11541   4.516   2.142   0.905
 4233W        W11542   0.885   9.372   8.896
 4234W        W11543   1.141   8.455   0.206
 4235W        W11544  17.830   2.511   5.616
 4236W        W11545   0.401   9.350   9.793
 4237W        W11546  18.201   1.229   9.781
 4238W        W11547  10.008   1.512   6.381
 4239W        W11548  18.557   4.793   6.016
 4240W        W11549   9.052   9.880   9.488
 4241W        W11550   1.001   4.330   0.475
 4242W        W11551   7.063   3.814   0.405
 4243W        W11552  10.295   6.436   9.872
 4244W        W11553   7.434   6.039   8.932
 4245W        W11554   1.743   5.859   9.185
 4246W        W11555   4.283   0.620   6.169
 4247W        W11556   4.648   8.356   8.281
 4248W        W11557  12.004   9.088   8.780
 4249W        W11558   5.606   0.160   6.050
 4250W        W11559   8.132   1.850   9.748
 4251W        W11560   7.968   9.375   9.117
 4252W        W11561  18.417   1.817   6.374
 4253W        W11562  14.644   3.980   0.076
 4254W        W11563   5.674   6.969   9.966
 4255W        W11564   2.559   9.779   6.704
 4256W        W11565   9.266   9.417   6.460
 4257W        W11566   4.879   2.650   6.087
 4258W        W11567  12.732   5.905   6.776
 4259W        W11568   3.247   4.908   9.454
 4260W        W11569   7.002   6.443   7.840
 4261W        W11570   2.523   0.319   7.562
 4262W        W11571  10.779   7.503   7.683
 4263W        W11572   8.138   6.949   6.419
 4264W        W11573  18.722   7.377   0.015
 4265W        W11574  18.678   7.428   6.451
 4266W        W11575  14.869   0.120   7.704
 4267W        W11576   4.387   3.197   9.913
 4268W        W11577   6.702   0.865   8.384
 4269W        W11578  18.281   2.951   8.677
 4270W        W11579   9.490   2.418   7.869
 4271W        W11580  16.785   5.194   8.457
 4272W        W11581  12.665   3.981   8.762
 4273W        W11582  15.021   6.702   0.263
 4274W        W11583   8.809   9.427   9.492
 4275W        W11584   2.258   6.282   7.437
 4276W        W11585  13.994   6.313   7.427
 4277W        W11586   0.423   6.108   6.732
 4278W        W11587   0.806   6.036   0.216
 4279W        W11588  12.667   4.776   8.614
 4280W        W11589  19.166   3.913   8.473
 4281W        W11590  17.360   7.654   8.920
 4282W        W11591   5.359   7.001   7.506
 4283W        W11592   0.274   1.644   0.411
 4284W        W11593   8.018   3.866   6.224
 4285W        W11594   4.795   8.031   6.592
 4286W        W11595  12.536   6.539   7.527
 4287W        W11596  18.275   8.035   0.620
 4288W        W11597   6.800   4.012   7.151
 4289W        W11598   6.853   4.298   9.309
 4290W        W11599   6.144   4.431   9.378
 4291W        W11600  15.376   2.361   6.161
 4292W        W11601  12.200   3.828   7.783
 4293W        W11602   0.794   7.077   0.773
 4294W        W11603  12.759   6.464   8.872
 4295W        W11604   4.322   1.181   0.482
 4296W        W11605   1.681   4.196   6.476
 4297W        W11606   8.528   2.111   0.545
 4298W        W11607  19.449   7.890   8.464
 4299W        W11608  13.783   3.835   6.845
 4300W        W11609   7.997   0.003   0.964
 4301W        W11610  14.496   2.920   7.529
 4302W        W11611   1.741   3.519   9.360
 4303W        W11612  11.355   0.059   8.640
 4304W        W11613  18.345   5.192   6.703
 4305W        W11614   6.254   0.588   0.544
 4306W        W11615  13.764   2.687   8.224
 4307W        W11616  19.408   6.922   9.997
 4308W        W11617   1.228   5.822   9.299
 4309W        W11618   6.177   0.841   9.250
 4310W        W11619  13.038   9.459   8.142
 4311W        W11620  17.606   8.607   9.173
 4312W        W11621   7.965   5.117   8.819
 4313W        W11622   6.182   1.154   7.711
 4314W        W11623   4.175   7.832   8.771
 4315W        W11624  18.751   4.128   8.719
 4316W        W11625  18.815   9.532   8.543
 4317W        W11626   1.994   9.066   7.885
 4318W        W11627  19.664   4.997   7.498
 4319W        W11628   5.931   1.956   6.588
 4320W        W11629  15.143   8.723   9.024
 4321W        W11630  18.381   0.251   6.334
 4322W        W11631   6.253   7.385   9.278
 4323W        W11632  15.820   8.509  -0.004
 4324W        W11633  10.163   3.263   0.933
 4325W        W11634  14.569   2.697   0.672
 4326W        W11635   3.717   5.467   6.250
 4327W        W11636  16.268   7.631   7.958
 4328W        W11637   5.636   4.813   7.132
 4329W        W11638   1.186   9.351   9.332
 4330W        W11639   2.739   6.337   8.860
 4331W        W11640   8.554   5.582   0.599
 4332W        W11641   3.690   4.167   0.557
 4333W        W11642  18.000   4.676   6.999
 4334W        W11643   0.852   7.626   9.866
 4335W        W11644  15.408   0.605   7.366
 4336W        W11645  16.079   4.472   7.271
 4337W        W11646   2.977   1.359   9.806
 4338W        W11647  16.553   0.633   0.002
 4339W        W11648  16.690   9.781   7.344
 4340W        W11649   7.509   3.181   8.795
 4341W        W11650   9.005   6.856   9.247
 4342W        W11651   7.633   7.678   8.633
 4343W        W11652  12.555   9.702   9.533
 4344W        W11653   9.078   9.893   0.041
 4345W        W11654   3.763   1.796   8.162
 4346W        W11655   4.620   6.191   8.960
 4347W        W11656   3.962   3.840   8.044
 4348W        W11657   2.562   0.989   0.507
 4349W        W11658   6.931   9.038   8.798
 4350W        W11659   6.011   4.489   0.380
 4351W        W11660  13.119   5.318   9.178
 4352W        W11661  16.093   5.071   0.218
 4353W        W11662   2.312   6.784   7.542
 4354W        W11663   8.338   2.173   0.088
 4355W        W11664  17.912   1.882   6.186
 4356W        W11665  17.292   1.279   9.752
 4357W        W11666  13.588   0.575   9.298
 4358W        W11667   0.331   8.517   9.785
 4359W        W11668   6.047   8.983   8.014
 4360W        W11669  17.768   6.423   0.183
 4361W        W11670   2.708   6.323   6.997
 4362W        W11671   4.963   8.855   0.362
 4363W        W11672  14.346   0.742   9.906
 4364W        W11673  14.143   0.221   1.204
 4365W        W11674   6.954   9.031   8.299
 4366W        W11675  17.020   6.335   6.171
 4367W        W11676  16.563   5.300   0.359
 4368W        W11677  11.467   8.314   7.300
 4369W        W11678   1.680   5.735   0.178
 4370W        W11679   3.835   8.429   9.842
 4371W        W11680  12.532   7.059   7.405
 4372W        W11681   2.269   5.994   9.110
 4373W        W11682   0.819   0.166   7.366
 4374W        W11683   4.396   7.611   9.822
 4375W        W11684   0.589   4.224   6.188
 4376W        W11685   3.748   5.903   0.314
 4377W        W11686  19.443   8.592   6.953
 4378W        W11687  18.641   0.841   8.049
 4379W        W11688   6.011   5.727   7.202
 4380W        W11689   7.554   8.273   7.301
 4381W        W11690   3.353   0.856   7.100
 4382W        W11691   4.506   6.612   8.536
 4383W        W11692   3.649   8.492   1.099
 4384W        W11693   5.445   4.599   0.623
 4385W        W11694  18.931   3.110   6.113
 4386W        W11695   4.740   0.975   0.278
 4387W        W11696   4.529   8.524   6.642
 4388W        W11697   8.572   6.374   9.435
 4389W        W11698  13.155   0.867   9.371
 4390W        W11699   5.037   6.691   8.520
 4391W        W11700  10.946   0.942   7.019
 4392W        W11701   7.960   0.910   0.547
 4393W        W11702  14.273   5.885   6.515
 4394W        W11703  14.257   8.933   8.198
 4395W        W11704  16.704   4.578   6.580
 4396W        W11705  16.835   4.799   9.477
 4397W        W11706   3.443   1.748   7.008
 4398W        W11707   6.718   7.336   9.026
 4399W        W11708   5.958   9.249   6.804
 4400W        W11709   3.747   6.479   9.865
 4401W        W11710  14.417   5.600   9.559
 4402W        W11711   5.579   9.257   9.444
 4403W        W11712  13.119   0.151   6.521
 4404W        W11713   5.833   8.485   0.683
 4405W        W11714   4.189   2.115   8.275
 4406W        W11715   6.089   7.146   6.134
 4407W        W11716  12.545   6.599   8.423
 4408W        W11717  19.848   9.907   0.406
 4409W        W11718   1.420   6.824   0.122
 4410W        W11719   3.431   9.921   6.787
 4411W        W11720   0.752   8.443   6.911
 4412W        W11721  16.928   9.236   0.074
 4413W        W11722   3.049   7.086   0.558
 4414W        W11723  14.656   7.504   7.160
 4415W        W11724   1.109   5.837   8.009
 4416W        W11725   9.729   4.611   6.506
 4417W        W11726   0.201   4.539   0.958
 4418W        W11727  10.762   5.860   8.848
 4419W        W11728   5.702   3.254   8.398
 4420W        W11729   8.550   0.277   8.423
 4421W        W11730  13.370   3.432   7.546
 4422W        W11731   8.753   8.823   6.956
 4423W        W11732  17.223   5.154   9.291
 4424W        W11733   7.250   7.989   9.364
 4425W        W11734   3.993   5.354   1.181
 4426W        W11735   9.879   3.819   6.848
 4427W        W11736  12.033   1.561   6.239
 4428W        W11737  15.062   8.796   7.667
 4429W        W11738  16.011   4.397   8.311
 4430W        W11739  17.781   5.894   6.738
 4431W        W11740  17.034   6.151   0.602
 4432W        W11741   0.985   2.828   8.029
 4433W        W11742   4.146   6.399   6.974
 4434W        W11743   6.706   0.583   6.708
 4435W        W11744  18.284   8.110   7.067
 4436W        W11745   2.734   4.944   0.355
 4437W        W11746  11.021   2.338   8.156
 4438W        W11747   9.570   9.238   7.334
 4439W        W11748  13.354   3.162   9.833
 4440W        W11749   9.769   0.457   0.750
 4441W        W11750   8.375   2.024   9.167
 4442W        W11751   7.969   5.703   8.467
 4443W        W11752   8.476   1.068   0.656
 4444W        W11753   7.649   6.411   9.214
 4445W        W11754  13.641   7.881   0.605
 4446W        W11755   2.130   3.686   6.017
 4447W        W11756   2.338   5.018   9.084
 4448W        W11757   0.359   2.979   6.521
 4449W        W11758   9.927   0.615   9.148
 4450W        W11759  19.739   5.086   0.555
 4451W        W11760  15.780   8.922   9.669
 4452W        W11761   0.213   5.130   8.824
 4453W        W11762   8.008   2.952   0.838
 4454W        W11763  11.536   4.414   0.280
 4455W        W11764   5.506   6.856   9.474
 4456W        W11765   9.151   5.585   6.118
 4457W        W11766   3.386   0.154   8.136
 4458W        W11767  15.157   9.236   8.464
 4459W        W11768   6.844   5.493   6.237
 4460W        W11769  18.190   1.615   8.444
 4461W        W11770  11.183   8.229   9.901
 4462W        W11771  11.305   7.890   8.285
 4463W        W11772   9.831   8.864   7.090
 4464W        W11773  15.770   6.958   9.771
 4465W        W11774  13.492   6.381   6.517
 4466W        W11775  19.643   8.004   7.483
 4467W        W11776   5.593   4.206   0.338
 4468W        W11777   6.184   8.842   7.023
 4469W        W11778   9.776   4.756   6.014
 4470W        W11779   7.664   8.757   7.162
 4471W        W11780  19.161   4.759   6.284
 4472W        W11781  10.413   0.209   7.149
 4473W        W11782  12.862   7.724   6.811
 4474W        W11783   3.032   6.048   9.717
 4475W        W11784   7.279   0.608   7.417
 4476W        W11785   5.793   8.418   9.655
 4477W        W11786  19.541   1.763   8.302
 4478W        W11787   1.137   7.804   7.797
 4479W        W11788  15.279   1.517   7.467
 4480W        W11789  12.073   4.868   0.932
 4481W        W11790  18.835   5.566   0.550
 4482W        W11791  16.915   1.044   6.716
 4483W        W11792  17.524   6.940   0.485
 4484W        W11793   2.107   9.281   0.659
 4485W        W11794  10.868   6.985   0.354
 4486W        W11795   5.483   6.832   0.833
 4487W        W11796  10.903   0.870   0.966
 4488W        W11797   2.109   4.096   7.211
 4489W        W11798   6.119   6.188   7.398
 4490W        W11799  18.766   0.742   9.937
 4491W        W11800  11.764   0.368   8.690
 4492W        W11801   0.068   0.334   7.895
 4493W        W11802  19.745   1.326   7.032
 4494W        W11803   1.342   9.831   6.152
 4495W        W11804   3.809   6.955   7.404
 4496W        W11805   3.721   9.686   0.228
 4497W        W11806  14.471   0.326   7.408
 4498W        W11807   5.847   0.670   9.638
 4499W        W11808  10.245   3.198   8.358
 4500W        W11809   3.408   8.530   8.885
 4501W        W11810   7.657   7.510   0.049
 4502W        W11811   3.821   2.689   9.338
 4503W        W11812   5.845   3.201   9.204
 4504W        W11813  15.268   9.948   0.279
 4505W        W11814   2.844   6.856   9.321
 4506W        W11815   1.975   1.036   6.793
 4507W        W11816   5.090   8.092   0.272
 4508W        W11817  10.498   6.999   9.953
 4509W        W11818   1.122   6.925   1.128
 4510W        W11819   7.285   3.146   7.514
 4511W        W11820   2.572   6.417   8.376
 4512W        W11821  16.794   0.036   0.220
 4513W        W11822   6.252   9.833   8.066
 4514W        W11823  19.881   4.561   7.714
 4515W        W11824   0.957   2.498   0.937
 4516W        W11825  18.540   0.323   9.666
 4517W        W11826   9.332   5.963   8.624
 4518W        W11827  18.350   4.873   8.316
 4519W        W11828  12.926   3.350   6.312
 4520W        W11829   6.520   0.178   9.293
 4521W        W11830   5.887   7.276   8.928
 4522W        W11831   9.898   1.162   8.419
 4523W        W11832   9.896   2.238   9.085
 4524W        W11833   4.580   6.632   1.101
 4525W        W11834   0.626   5.757   6.124
 4526W        W11835  16.448   6.517   8.736
 4527W        W11836  13.334   3.705   7.070
 4528W        W11837  11.459   8.486   0.281
 4529W        W11838  18.979   0.028   8.520
 4530W        W11839  14.933   4.924   1.187
 4531W        W11840   5.784   6.422   0.994
 4532W        W11841  11.484   3.610   8.262
 4533W        W11842  17.722   6.818   6.821
 4534W        W11843   8.824   0.892   7.662
 4535W        W11844   2.844   0.964   7.120
 4536W        W11845  19.228   3.350   8.625
 4537W        W11846  14.879   6.899   7.404
 4538W        W11847   8.180   8.718   8.921
 4539W        W11848  16.703   9.340   8.236
 4540W        W11849   3.462   7.712   9.214
 4541W        W11850   6.744   7.167   6.825
 4542W        W11851  17.664   5.253   9.599
 4543W        W11852  10.281   7.954   0.118
 4544W        W11853  11.439   4.266   6.715
 4545W        W11854  18.983   7.308   8.299
 4546W        W11855   4.613   0.581   7.942
 4547W        W11856   3.229   0.621   8.351
 4548W        W11857  13.630   2.310   7.387
 4549W        W11858  19.930   4.057   7.606
 4550W        W11859   9.493   7.496   8.980
 4551W        W11860   9.998   8.535   8.382
 4552W        W11861  12.230   7.013   0.234
 4553W        W11862  12.901   9.385   7.145
 4554W        W11863   5.317   8.040   6.552
 4555W        W11864   6.696   8.138   0.457
 4556W        W11865  17.074   5.460   6.536
 4557W        W11866   8.451   1.016   8.018
 4558W        W11867   2.978   5.350   0.161
 4559W        W11868   2.598   1.069   0.010
 4560W        W11869  16.159   5.600   8.535
 4561W        W11870  17.735   1.336   7.927
 4562W        W11871  10.749   2.710   7.831
 4563W        W11872   8.472   6.857   9.232
 4564W        W11873   7.826   6.028   6.002
 4565W        W11874   6.893   2.633   8.547
 4566W        W11875  19.953   3.127   6.128
 4567W        W11876  14.231   7.151   6.071
 4568W        W11877  13.502   3.605   9.574
 4569W        W11878  11.663   7.837   8.650
 4570W        W11879  10.006   6.029  -0.003
 4571W        W11880   5.333   7.330   0.725
 4572W        W11881  16.652   3.163   8.127
 4573W        W11882  15.519   2.779   0.829
 4574W        W11883   9.202   8.520   6.112
 4575W        W11884   0.755   1.832   6.829
 4576W        W11885  12.971   0.678   6.803
 4577W        W11886  11.421   9.626   8.420
 4578W        W11887   5.778   1.751   1.026
 4579W        W11888  17.263   7.302   0.201
 4580W        W11889   8.107   2.288   6.016
 4581W        W11890   1.512   4.816   7.119
 4582W        W11891   2.277   1.774   7.346
 4583W        W11892  16.269   6.949   7.661
 4584W        W11893   0.645   0.452   1.129
 4585W        W11894   9.408   5.422   0.263
 4586W        W11895  16.073   6.165   6.561
 4587W        W11896   1.732   8.401   0.115
 4588W        W11897   9.824   2.147   9.581
 4589W        W11898   3.031   4.514   0.287
 4590W        W11899   2.286   4.564   7.106
 4591W        W11900  15.892   5.166   6.523
 4592W        W11901   0.685   1.331   6.071
 4593W        W11902   4.538   5.870   9.732
 4594W        W11903   9.438   0.079   7.631
 4595W        W11904   8.106   1.895   0.738
 4596W        W11905   1.491   0.881   7.023
 4597W        W11906   9.285   1.993   6.514
 4598W        W11907  17.030   9.263   6.585
 4599W        W11908  16.354   3.908   9.685
 4600W        W11909  15.024   3.964   8.925
 4601W        W11910  13.008   4.520   0.813
 4602W        W11911  11.686   2.112   8.800
 4603W        W11912  10.819   8.038   8.345
 4604W        W11913   0.834   8.030   9.344
 4605W        W11914  16.620   1.810   6.283
 4606W        W11915   3.762   5.003   0.313
 4607W        W11916  12.863   3.779   6.839
 4608W        W11917  13.348   5.576   8.762
 4609W        W11918  14.253   8.996   9.199
 4610W        W11919   0.043   0.792   8.139
 4611W        W11920   1.576   7.678   8.025
 4612W        W11921  11.327   2.645   6.778
 4613W        W11922   3.601   7.418   7.526
 4614W        W11923   9.942   0.937   9.561
 4615W        W11924   8.394   1.516   8.097
 4616W        W11925   3.308   5.877   6.873
 4617W        W11926   5.585   2.081   8.470
 4618W        W11927   9.327   9.243   9.334
 4619W        W11928  15.004   2.996   9.383
 4620W        W11929  16.325   8.233   0.822
 4621W        W11930   9.142   0.614   6.833
 4622W        W11931  10.647   2.839   8.840
 4623W        W11932   5.641   1.540   6.708
 4624W        W11933  16.814   6.274   8.500
 4625W        W11934  14.504   6.816   0.247
 4626W        W11935  11.437   4.673   7.052
 4627W        W11936   8.724   7.483   7.982
 4628W        W11937   3.170   1.092   7.539
 4629W        W11938  15.017   2.824   0.449
 4630W        W11939   3.736   5.015   8.145
 4631W        W11940  16.941   5.628   7.014
 4632W        W11941  11.629   7.837   7.379
 4633W        W11942   8.554   9.017   8.750
 4634W        W11943   8.913   4.506   0.197
 4635W        W11944   3.513   4.480   9.350
 4636W        W11945   1.474   0.263   8.760
 4637W        W11946  17.449   8.326   7.985
 4638W        W11947   5.445   9.394   7.564
 4639W        W11948   6.489   4.443   7.038
 4640W        W11949   8.005   4.968   7.819
 4641W        W11950   6.241   8.850   9.004
 4642W        W11951   7.239   6.724   0.425
 4643W        W11952   5.336   1.065   6.642
 4644W        W11953   0.558   1.612   8.092
 4645W        W11954  11.046   1.606   8.795
 4646W        W11955  17.907   0.132   7.177
 4647W        W11956  14.364   5.154   8.769
 4648W        W11957   6.684   9.117   9.254
 4649W        W11958   6.692   4.019   0.678
 4650W        W11959   4.804   3.684   7.374
 4651W        W11960  14.397   5.645   8.699
 4652W        W11961  12.441   0.831   6.248
 4653W        W11962   6.502   2.167   0.613
 4654W        W11963  18.058   5.532   6.455
 4655W        W11964  17.900   1.781   0.246
 4656W        W11965   1.865   7.092   6.546
 4657W        W11966   8.521   4.489   8.438
 4658W        W11967  15.763   6.933   8.457
 4659W        W11968  10.188   5.145   6.718
 4660W        W11969   5.875   1.110   8.385
 4661W        W11970   4.766   5.006   8.203
 4662W        W11971  14.868   4.667   9.698
 4663W        W11972  15.330   4.546   0.443
 4664W        W11973  11.372   4.858   9.511
 4665W        W11974   8.586   8.721   7.847
 4666W        W11975   4.074   5.043   8.867
 4667W        W11976   9.844   9.273   0.161
 4668W        W11977  11.884   5.429   6.029
 4669W        W11978   9.097   3.591   8.478
 4670W        W11979  10.704   2.023   6.283
 4671W        W11980   6.587   6.100   9.506
 4672W        W11981   7.128   5.071   6.237
 4673W        W11982  13.878   2.610   9.908
 4674W        W11983   3.398   6.782   9.352
 4675W        W11984   5.538   3.850   9.959
 4676W        W11985  13.101   4.172   7.090
 4677W        W11986  15.146   0.443   8.442
 4678W        W11987  12.478   6.046   7.738
 4679W        W11988  12.823   9.589   9.079
 4680W        W11989   9.740   6.404   9.778
 4681W        W11990  13.264   5.297   0.445
 4682W        W11991   4.810   3.422   0.278
 4683W        W11992   1.593   5.364   8.450
 4684W        W11993  16.980   6.840   9.973
 4685W        W11994   8.572   7.506   8.481
 4686W        W11995  16.378   1.823   0.813
 4687W        W11996   9.759   1.373   9.768
 4688W        W11997  13.094   8.170   6.978
 4689W        W11998  10.159   9.377   8.407
 4690W        W11999   4.169   9.658   7.309
 4691W        W12000  12.964   3.200   0.647
 4692W        W12001  15.666   0.376   8.307
 4693W        W12002   8.679   4.664   9.748
 4694W        W12003   9.493   7.248   8.532
 4695W        W12004   1.853   7.532   8.878
 4696W        W12005  15.976   4.243   9.864
 4697W        W12006   4.759   6.264   9.441
 4698W        W12007  11.052   3.671   7.972
 4699W        W12008   3.050   0.116   0.692
 4700W        W12009   9.372   5.097   6.125
 4701W        W12010  19.180   1.676   7.486
 4702W        W12011   9.649   7.939   9.186
 4703W        W12012  17.879   0.815   9.186
 4704W        W12013  12.376   0.182   6.210
 4705W        W12014  18.738   4.959   6.484
 4706W        W12015  12.485   3.106   9.891
 4707W        W12016  13.044   3.641   8.802
 4708W        W12017  13.975   3.617   8.160
 4709W        W12018  18.187   2.170   9.744
 4710W        W12019  12.872   7.412   9.817
 4711W        W12020   8.091   5.253   0.585
 4712W        W12021  18.654   5.316   9.220
 4713W        W12022  14.990   9.197   0.837
 4714W        W12023  17.850   7.889   0.353
 4715W        W12024  17.669   3.486   9.395
 4716W        W12025  14.242   3.340   7.372
 4717W        W12026  17.320   2.153   9.205
 4718W        W12027  15.912   3.246   6.907
 4719W        W12028  17.369   9.948   9.387
 4720W        W12029   3.095   8.890   5.992
 4721W        W12030   9.689   8.136   8.278
 4722W        W12031  12.133   8.309   8.053
 4723W        W12032   9.150   3.243   8.858
 4724W        W12033   2.667   3.743   8.790
 4725W        W12034   0.782   2.097   0.606
 4726W        W12035   7.053   9.736   9.777
 4727W        W12036   2.774   4.592   7.293
 4728W        W12037   0.428   1.627   9.411
 4729W        W12038   1.086   2.413   8.861
 4730W        W12039  17.376   1.612   7.367
 4731W        W12040  10.872   5.896   9.364
 4732W        W12041   1.737   3.917   8.258
 4733W        W12042   9.532   6.828   0.447
 4734W        W12043  17.951   8.806   0.390
 4735W        W12044  17.119   6.831   9.104
 4736W        W12045   1.034   6.500   0.197
 4737W        W12046  11.263   4.815   0.046
 4738W        W12047  16.470   0.093   7.699
 4739W        W12048  11.032   8.471   8.540
 4740W        W12049   0.684   3.639   9.182
 4741W        W12050  19.111   3.926   9.700
 4742W        W12051  17.280   1.695   8.968
 4743W        W12052   2.208   6.546   9.725
 4744W        W12053  10.991   4.036   7.624
 4745W        W12054  14.931   0.163   7.203
 4746W        W12055  16.047   8.350   6.619
 4747W        W12056  19.330   2.515   6.792
 4748W        W12057   1.373   7.978   0.190
 4749W        W12058  19.731   9.480   0.708
 4750W        W12059   2.433   9.922   9.487
 4751W        W12060   2.191   3.256   9.390
 4752W        W12061   8.157   6.542   0.306
 4753W        W12062  14.600   7.023   8.653
 4754W        W12063  14.047   0.709   9.490
 4755W        W12064   0.863   8.518   8.863
 4756W        W12065  16.850   9.098   0.573
 4757W        W12066   7.480   8.424   0.941
 4758W        W12067   1.842   6.972   7.569
 4759W        W12068  15.488   3.846   1.054
 4760W        W12069  11.823   7.355   0.848
 4761W        W12070   0.421   2.729   6.075
 4762W        W12071  15.473   3.223   6.618
 4763W        W12072   2.617   7.546   7.994
 4764W        W12073  10.851   5.004   0.336
 4765W        W12074   9.488   0.476   8.893
 4766W        W12075  19.838   2.653   8.628
 4767W        W12076   3.175   7.889   8.808
 4768W        W12077   9.791   7.904   0.250
 4769W        W12078   5.235   9.744   7.219
 4770W        W12079   6.380   5.369   6.068
 4771W        W12080   7.206   1.759   0.340
 4772W        W12081  15.100   4.382   8.230
 4773W        W12082   4.660   0.073   9.111
 4774W        W12083  18.840   1.644   6.649
 4775W        W12084  16.788   1.306   6.221
 4776W        W12085   8.283   4.061   7.567
 4777W        W12086   0.551   7.448   6.429
 4778W        W12087  17.669   9.002   9.975
 4779W        W12088  19.763   7.813   0.793
 4780W        W12089   4.297   1.755   6.856
 4781W        W12090   5.274   5.304   7.511
 4782W        W12091   6.804   5.292   7.048
 4783W        W12092   5.548   2.579   7.222
 4784W        W12093  11.821   4.172   6.359
 4785W        W12094  15.040   8.695   0.797
 4786W        W12095   8.029   7.009   7.948
 4787W        W12096   0.741   5.792   7.434
 4788W        W12097   3.571   3.611   8.319
 4789W        W12098   9.008   0.806   9.777
 4790W        W12099  13.082   9.837   7.342
 4791W        W12100  13.510   7.159   0.127
 4792W        W12101  18.336   7.511   9.385
 4793W        W12102  10.833   4.138   8.216
 4794W        W12103  13.271   1.125   7.220
 4795W        W12104  19.888   1.363   6.519
 4796W        W12105  14.912   5.663   8.741
 4797W        W12106  14.314   9.825   9.724
 4798W        W12107  13.857   4.570   7.039
 4799W        W12108   3.984   2.854   0.723
 4800W        W12109   0.224   0.746   8.618
 4801W        W12110  12.045   9.566   8.575
 4802W        W12111   9.809   9.578   9.733
 4803W        W12112   0.418   6.237   7.462
 4804W        W12113   7.746   3.670   8.824
 4805W        W12114  11.893   6.408   9.298
 4806W        W12115  19.406   5.842   0.251
 4807W        W12116   5.681   6.026   6.584
 4808W        W12117  17.944   8.240   8.954
 4809W        W12118   2.464   8.408   9.667
 4810W        W12119   6.121   2.784   7.974
 4811W        W12120   4.617   9.420   5.771
 4812W        W12121  16.068   7.372   9.639
 4813W        W12122   2.468   2.178   8.449
 4814W        W12123  16.930   2.024   7.895
 4815W        W12124  11.545   3.279   9.055
 4816W        W12125  19.415   3.855   6.695
 4817W        W12126   5.782   9.080   9.005
 4818W        W12127   9.414   0.325   6.134
 4819W        W12128   4.980   6.635   0.356
 4820W        W12129   1.230   1.178   6.380
 4821W        W12130  16.843   9.427   6.147
 4822W        W12131   5.986   5.006   7.910
 4823W        W12132  18.583   8.942   7.783
 4824W        W12133  19.484   6.007   5.938
 4825W        W12134   3.273   4.478   9.810
 4826W        W12135   3.329   9.679   1.016
 4827W        W12136   6.994   3.460   8.316
 4828W        W12137   7.480   9.269   6.396
 4829W        W12138   8.465   8.357   6.805
 4830W        W12139  18.750   5.902   7.382
 4831W        W12140   9.055   7.353   8.321
 4832W        W12141  11.096   2.818   8.553
 4833W        W12142   0.590   3.128   9.182
 4834W        W12143   2.166   5.862   0.031
 4835W        W12144   3.979   0.161   7.535
 4836W        W12145  19.018   5.806   6.093
 4837W        W12146  17.471   4.470   8.429
 4838W        W12147   2.759   8.770   0.128
 4839W        W12148   8.980   7.639   9.693
 4840W        W12149  12.506   8.277   8.889
 4841W        W12150  18.862   6.085   9.570
 4842W        W12151  16.932   1.285   1.035
 4843W        W12152  10.784   6.575   9.983
 4844W        W12153  12.230   8.800   0.447
 4845W        W12154   2.412   0.251   9.068
 4846W        W12155  14.150   1.095   0.215
 4847W        W12156  18.661   9.250   0.307
 4848W        W12157   1.515   3.084   0.398
 4849W        W12158  14.341   9.753   0.238
 4850W        W12159  14.352   4.600   7.055
 4851W        W12160   4.853   5.146   6.636
 4852W        W12161  12.872   4.941   0.479
 4853W        W12162  13.187   1.733   7.992
 4854W        W12163   7.538   7.021   0.095
 4855W        W12164  13.710   2.026   0.683
 4856W        W12165   6.110   3.520   9.675
 4857W        W12166   4.853   5.533   9.940
 4858W        W12167   3.526   6.359   6.235
 4859W        W12168   2.773   1.900   7.467
 4860W        W12169   7.649   2.453   6.227
 4861W        W12170  15.942   5.341   7.872
 4862W        W12171  19.794   7.623   7.766
 4863W        W12172  11.820   2.076   9.276
 4864W        W12173   2.855   1.258   7.887
 4865W        W12174  19.161   9.115   0.378
 4866W        W12175  10.268   8.244   8.910
 4867W        W12176   8.326   0.600   0.384
 4868W        W12177   0.710   1.801   9.029
 4869W        W12178  18.376   0.356   7.293
 4870W        W12179   0.770   4.941   0.658
 4871W        W12180   3.672   8.055   8.857
 4872W        W12181  18.749   2.668   0.248
 4873W        W12182   9.219   9.505   7.827
 4874W        W12183   7.203   7.576   8.363
 4875W        W12184  10.938   1.966   7.135
 4876W        W12185   2.788   3.315   8.105
 4877W        W12186  19.985   5.837   6.726
 4878W        W12187   4.250   5.598   0.807
 4879W        W12188  19.176   8.151   6.842
 4880W        W12189  16.508   5.971   0.049
 4881W        W12190   9.477   6.803   6.563
 4882W        W12191  16.583   5.023   9.913
 4883W        W12192   9.969   4.887   7.690
 4884W        W12193   7.823   9.595   6.700
 4885W        W12194   8.800   2.971   9.174
 4886W        W12195  19.187   6.053   8.718
 4887W        W12196  18.536   4.653   7.876
 4888W        W12197   3.252   8.977   9.406
 4889W        W12198  16.296   4.489   6.263
 4890W        W12199   8.442   9.110   6.228
 4891W        W12200  15.701   8.276   7.422
 4892W        W12201  13.610   2.149   9.980
 4893W        W12202   7.063   7.058   7.685
 4894W        W12203  13.037   6.066   9.726
 4895W        W12204  17.749   1.338   0.014
 4896W        W12205  10.037   4.570   9.384
 4897W        W12206  18.281   2.686   0.500
 4898W        W12207   1.008   7.080   7.440
 4899W        W12208  15.273   6.722   7.701
 4900W        W12209  11.471   5.071   6.682
 4901W        W12210  11.824   6.924   0.539
 4902W        W12211  11.025   1.660   9.298
 4903W        W12212  18.403   1.921   0.973
 4904W        W12213   4.651   2.525   7.343
 4905W        W12214  11.995   2.373   8.468
 4906W        W12215  13.611   7.267   9.280
 4907W        W12216   1.487   2.102   9.348
 4908W        W12217   0.102   6.310   8.617
 4909W        W12218  16.263   1.918   6.634
 4910W        W12219  17.325   5.993   7.026
 4911W        W12220  16.290   5.572   9.044
 4912W        W12221  10.636   9.193   9.739
 4913W        W12222   3.021   3.063   9.280
 4914W        W12223  10.513   6.709   9.503
 4915W        W12224   4.805   5.516   0.796
 4916W        W12225   4.309   4.171   0.826
 4917W        W12226   3.805   4.501   9.781
 4918W        W12227   7.791   5.385   7.645
 4919W        W12228  15.211   9.166   7.312
 4920W        W12229   7.289   9.762   8.451
 4921W        W12230   6.938   7.562   7.583
 4922W        W12231  12.558   6.403   0.852
 4923W        W12232   4.584   9.158   0.547
 4924W        W12233  13.527   5.526   8.276
 4925W        W12234   9.249   3.392   7.562
 4926W        W12235  16.307   3.965   8.656
 4927W        W12236   8.920   5.119   9.766
 4928W        W12237   1.809   6.506   7.334
 4929W        W12238   8.791   8.839   8.337
 4930W        W12239  11.497   3.102   8.384
 4931W        W12240  10.094   1.736   9.702
 4932W        W12241  19.117   5.934   6.597
 4933W        W12242   0.805   2.581   8.450
 4934W        W12243   6.176   5.469   8.038
 4935W        W12244  16.308   8.996   6.346
 4936W        W12245  18.392   6.458   0.835
 4937W        W12246  16.653   8.139   8.680
 4938W        W12247  16.114   0.999   0.696
 4939W        W12248   5.352   8.863   8.787
 4940W        W12249  10.654   5.510   9.617
 4941W        W12250  16.831   7.296   9.207
 4942W        W12251   1.236   2.624   6.391
 4943W        W12252   4.968   9.447   6.403
 4944W        W12253  14.565   9.410   9.935
 4945W        W12254  11.658   9.000   7.149
 4946W        W12255   1.317   6.091   0.102
 4947W        W12256  15.211   5.496   9.135
 4948W        W12257  19.906   7.777   0.279
 4949W        W12258  11.425   6.579   9.263
 4950W        W12259  16.381   5.321   8.164
 4951W        W12260  15.523   1.853   6.719
 4952W        W12261   6.722   4.531   0.625
 4953W        W12262   8.824   4.848   6.756
 4954W        W12263   2.532   2.063   9.325
 4955W        W12264   1.928   7.769   7.215
 4956W        W12265  14.456   2.084   0.029
 4957W        W12266  14.125   6.004   7.845
 4958W        W12267  11.131   3.971   9.481
 4959W        W12268   7.219   2.778   6.324
 4960W        W12269  16.269   1.760   7.431
 4961W        W12270   8.210   2.656   0.026
 4962W        W12271  17.191   0.690   5.890
 4963W        W12272   6.775   3.553   7.827
 4964W        W12273   6.260   8.365   8.777
 4965W        W12274   2.665   0.556   0.046
 4966W        W12275  14.245   6.612   0.645
 4967W        W12276  11.717   2.058   0.106
 4968W        W12277  18.553   2.427   1.057
 4969W        W12278  14.342   4.458   7.856
 4970W        W12279   8.829   9.627   6.681
 4971W        W12280  17.906   6.050   9.862
 4972W        W12281   8.645   7.040   8.244
 4973W        W12282  11.465   3.729   8.761
 4974W        W12283   2.273   9.666   8.458
 4975W        W12284   3.288   4.947   8.423
 4976W        W12285   7.081   3.820   0.925
 4977W        W12286   2.635   7.283   8.431
 4978W        W12287   8.995   2.275   6.187
 4979W        W12288  16.942   8.933   8.522
 4980W        W12289  18.744   3.130   7.859
 4981W        W12290  10.625   4.033   8.687
 4982W        W12291   1.637   8.285   8.442
 4983W        W12292   3.067   2.217   0.124
 4984W        W12293   4.794   6.717   6.198
 4985W        W12294  13.994   1.045   5.844
 4986W        W12295  11.431   5.551   6.852
 4987W        W12296   8.911   0.350   6.312
 4988W        W12297   3.569   7.132   6.602
 4989W        W12298  14.262   0.799   6.329
 4990W        W12299  10.409   0.216   8.123
 4991W        W12300  11.244   1.798   6.736
 4992W        W12301   9.808   4.599   7.280
 4993W        W12302  17.394   8.114   6.562
 4994W        W12303  10.035   2.094   0.068
 4995W        W12304   1.478   2.288   7.241
 4996W        W12305  15.435   2.593   8.559
 4997W        W12306   0.841   8.915   0.576
 4998W        W12307  18.687   7.891   6.264
 4999W        W12308  11.057   2.488   8.939
 5000W        W12309   0.221   4.938   0.616
 5001W        W12310  13.680   5.387   7.185
 5002W        W12311   5.609   0.586   9.212
 5003W        W12312   5.637   5.943   0.827
 5004W        W12313  15.909   3.440   8.660
 5005W        W12314  14.522   1.260   9.434
 5006W        W12315  15.571   2.116   8.621
 5007W        W12316  11.314   1.985   7.526
 5008W        W12317  19.507   7.281   7.472
 5009W        W12318   0.051   8.943   7.239
 5010W        W12319  14.275   9.495   6.873
 5011W        W12320   8.268   2.336   9.598
 5012W        W12321   9.619   1.966   7.097
 5013W        W12322   7.831   6.698   8.833
 5014W        W12323  19.959   6.471   9.090
 5015W        W12324  10.553   9.396   6.960
 5016W        W12325   1.507   2.729   8.890
 5017W        W12326   8.563   0.541   8.912
 5018W        W12327  10.701   6.891   7.078
 5019W        W12328   0.364   9.742   6.111
 5020W        W12329   0.221   5.921   8.275
 5021W        W12330   5.486   0.170   7.381
 5022W        W12331   7.836   5.928   9.661
 5023W        W12332  15.614   5.015   0.548
 5024W        W12333  14.301   0.582   0.823
 5025W        W12334   7.974   8.319   6.987
 5026W        W12335  11.545   8.920   6.104
 5027W        W12336  16.055   3.561   8.201
 5028W        W12337  16.969   4.973   6.371
 5029W        W12338   4.357   1.564   7.358
 5030W        W12339  18.870   0.452   6.279
 5031W        W12340   1.116   5.594   9.917
 5032W        W12341   8.340   7.332   9.859
 5033W        W12342  14.879   7.439   8.754
 5034W        W12343  10.663   2.866   8.317
 5035W        W12344  14.888   2.682   9.772
 5036W        W12345  14.773   2.871   6.597
 5037W        W12346   9.702   3.182   7.577
 5038W        W12347   3.242   4.607   7.078
 5039W        W12348  14.745   9.747   9.003
 5040W        W12349   8.513   4.971   7.132
 5041W        W12350  11.762   6.444   0.762
 5042W        W12351  19.879   2.543   6.764
 5043W        W12352   5.942   2.351   9.205
 5044W        W12353   3.163   5.867   0.211
 5045W        W12354  11.955   1.653   8.860
 5046W        W12355  16.288   4.681   8.996
 5047W        W12356   2.344   4.059   9.984
 5048W        W12357   3.495   1.481   7.826
 5049W        W12358   4.411   8.819   9.031
 5050W        W12359   9.689   5.913   8.264
 5051W        W12360  13.574   5.847   7.006
 5052W        W12361  13.518   6.662   0.118
 5053W        W12362   5.631   6.009   9.039
 5054W        W12363  17.865   9.141   8.481
 5055W        W12364   7.011   4.225   8.843
 5056W        W12365   3.186   7.260   8.344
 5057W        W12366   2.045   5.732   0.553
 5058W        W12367  12.690   4.418   1.247
 5059W        W12368  16.844   1.615   8.688
 5060W        W12369   8.717   8.920   0.184
 5061W        W12370   6.647   3.064   8.364
 5062W        W12371  16.807   3.185   6.972
 5063W        W12372  18.898   9.215   7.429
 5064W        W12373   9.074   6.355   9.325
 5065W        W12374  14.934   8.574   9.471
 5066W        W12375  12.713   2.415   8.928
 5067W        W12376  14.521   7.674   6.681
 5068W        W12377   9.124   0.127   9.042
 5069W        W12378   1.670   1.826   7.354
 5070W        W12379   3.352   5.144   6.425
 5071W        W12380   9.381   4.799   0.641
 5072W        W12381   2.394   7.793   9.269
 5073W        W12382   4.553   9.747   7.638
 5074W        W12383  19.815   6.897   9.322
 5075W        W12384   7.422   8.842   0.632
 5076W        W12385   3.313   5.758   6.356
 5077W        W12386  18.915   4.913   0.017
 5078W        W12387  10.022   2.885   7.284
 5079W        W12388   5.958   0.288   8.147
 5080W        W12389   9.122   5.862   0.245
 5081W        W12390  10.952   8.720   9.787
 5082W        W12391  10.141   1.872   8.789
 5083W        W12392  15.863   7.847   8.236
 5084W        W12393  17.555   0.387   8.717
 5085W        W12394  18.118   3.523   0.241
 5086W        W12395  15.897   0.775   7.313
 5087W        W12396  16.721   9.675   9.839
 5088W        W12397  13.592   7.945   9.658
 5089W        W12398   8.634   2.523   0.835
 5090W        W12399   2.769   9.684   0.615
 5091W        W12400   0.539   3.338   8.657
 5092W        W12401  14.456   6.170   6.136
 5093W        W12402   5.961   2.820   8.476
 5094W        W12403   0.965   6.056   9.712
 5095W        W12404  15.391   4.203   8.639
 5096W        W12405  15.906   9.481   0.484
 5097W        W12406   0.262   1.220   7.903
 5098W        W12407  12.436   7.997   9.300
 5099W        W12408   7.636   9.250   0.902
 5100W        W12409  19.177   8.254   0.260
 5101W        W12410   3.661   6.997   9.739
 5102W        W12411   7.388   7.901   9.873
 5103W        W12412   6.472   5.032   7.795
 5104W        W12413   5.219   3.141   8.316
 5105W        W12414  14.508   7.933   0.429
 5106W        W12415   8.050   2.661   7.493
 5107W        W12416  16.852   7.879   0.362
 5108W        W12417  10.043   1.610   0.217
 5109W        W12418  10.818   2.518   6.238
 5110W        W12419   6.649   7.806   8.113
 5111W        W12420   1.792   5.015   6.266
 5112W        W12421  12.104   8.594   8.821
 5113W        W12422   8.054   7.034   7.444
 5114W        W12423   6.867   4.467   7.408
 5115W        W12424   7.868   7.182   9.701
 5116W        W12425  15.003   1.835   8.027
 5117W        W12426  13.260   7.621   7.683
 5118W        W12427  12.038   3.379   7.583
 5119W        W12428   5.946   4.564   6.264
 5120W        W12429   2.744   9.695   7.506
 5121W        W12430   0.517   5.628   0.220
 5122W        W12431  14.266   4.500   5.791
 5123W        W12432   8.074   0.886   0.023
 5124W        W12433   6.415   4.129   6.239
 5125W        W12434  19.417   3.520   9.614
 5126W        W12435   0.740   2.985   7.597
 5127W        W12436  10.947   5.600   6.574
 5128W        W12437   0.377   3.548   8.194
 5129W        W12438   5.010   4.415   8.703
 5130W        W12439  14.481   5.459   6.684
 5131W        W12440   5.908   5.650   0.249
 5132W        W12441  10.972   9.357   7.283
 5133W        W12442  15.312   4.739   0.887
 5134W        W12443  16.725   3.694   6.256
 5135W        W12444   1.257   4.512   0.060
 5136W        W12445  19.148   8.281   8.287
 5137W        W12446  16.412   1.100   6.577
 5138W        W12447  16.347   3.165   7.212
 5139W        W12448   4.098   4.665   8.044
 5140W        W12449   1.704   9.874   6.525
 5141W        W12450   8.798   6.773   9.721
 5142W        W12451   4.133   8.536   0.261
 5143W        W12452  17.321   4.766   7.464
 5144W        W12453   0.025   1.450   9.717
 5145W        W12454   9.344   1.088   6.926
 5146W        W12455   9.984   6.993   0.190
 5147W        W12456   8.917   1.725   6.217
 5148W        W12457  15.345   5.434   0.424
 5149W        W12458   9.184   5.865   9.408
 5150W        W12459  11.710   4.057   9.898
 5151W        W12460   9.284   9.516   9.760
 5152W        W12461  15.228   3.711   6.533
 5153W        W12462   0.357   3.663   0.942
 5154W        W12463  16.739   8.121   9.580
 5155W        W12464  15.555   9.566   0.081
 5156W        W12465   1.958   8.482   9.670
 5157W        W12466   4.094   9.081   0.342
 5158W        W12467  19.315   9.071   9.897
 5159W        W12468   6.758   8.143   0.943
 5160W        W12469   5.758   0.459   7.680
 5161W        W12470   0.116   5.017   7.734
 5162W        W12471  12.561   1.134   0.796
 5163W        W12472  15.719   1.459   7.020
 5164W        W12473   7.437   3.962   9.681
 5165W        W12474  18.152   0.411   0.466
 5166W        W12475  14.068   6.841   9.973
 5167W        W12476   7.060   2.610   0.039
 5168W        W12477  13.849   5.555   9.656
 5169W        W12478  16.209   9.410   8.924
 5170W        W12479   9.770   8.538   6.201
 5171W        W12480  11.185   5.361   9.561
 5172W        W12481   8.367   9.693   0.732
 5173W        W12482   2.232   1.105   0.867
 5174W        W12483   7.720   8.320   7.885
 5175W        W12484   3.301   9.904   9.458
 5176W        W12485  16.481   3.592   7.903
 5177W        W12486  18.823   1.317   7.956
 5178W        W12487   1.142   7.238   0.016
 5179W        W12488   3.510   8.383   7.471
 5180W        W12489   1.829   2.681   7.377
 5181W        W12490   1.658   8.618   7.910
 5182W        W12491  11.129   7.958   8.779
 5183W        W12492   5.276   7.044   0.319
 5184W        W12493  12.617   6.660   0.191
 5185W        W12494   6.541   6.322   7.136
 5186W        W12495  13.300   4.336   7.568
 5187W        W12496   3.208   6.584   0.599
 5188W        W12497   0.783   0.728   9.325
 5189W        W12498   8.252   9.422   7.366
 5190W        W12499  16.893   0.826   6.256
 5191W        W12500  13.920   6.419   0.289
 5192W        W12501  18.884   1.849   6.171
 5193W        W12502   2.485   5.886   7.220
 5194W        W12503   3.290   9.720   7.442
 5195W        W12504  17.214   4.536   6.569
 5196W        W12505  19.584   0.042   6.709
 5197W        W12506  17.120   4.494   1.186
 5198W        W12507   6.016   9.473   8.773
 5199W        W12508   3.725   1.033   0.044
 5200W        W12509  12.781   3.007   8.641
 5201W        W12510  19.458   0.149   8.290
 5202W        W12511  12.581   1.128   7.854
 5203W        W12512   8.704   4.961   9.318
 5204W        W12513  15.619   8.821   7.415
 5205W        W12514  15.356   8.840   6.684
 5206W        W12515   5.421   3.590   9.091
 5207W        W12516   3.309   4.055   9.171
 5208W        W12517   1.875   7.574   9.736
 5209W        W12518  15.463   1.879   7.809
 5210W        W12519  10.093   1.340   8.866
 5211W        W12520   2.146   8.242   8.416
 5212W        W12521   7.098   7.930   7.906
 5213W        W12522  16.794   4.099   7.371
 5214W        W12523   6.184   0.920   7.045
 5215W        W12524  14.710   2.421   7.512
 5216W        W12525  15.003   6.992   8.969
 5217W        W12526   7.454   5.969   1.005
 5218W        W12527   9.510   3.746   9.937
 5219W        W12528  12.192   6.550   0.509
 5220W        W12529  16.538   9.394   6.551
 5221W        W12530   7.102   5.441   9.851
 5222W        W12531   5.811   2.596   0.559
 5223W        W12532  17.638   0.358   6.795
 5224W        W12533  12.269   2.157   7.544
 5225W        W12534   9.568   9.071   0.583
 5226W        W12535   8.841   1.696   8.251
 5227W        W12536  14.623   5.009   0.191
 5228W        W12537   9.409   8.149   6.964
 5229W        W12538  10.187   3.438   6.631
 5230W        W12539   0.972   0.269   9.647
 5231W        W12540   9.766   5.954   9.514
 5232W        W12541  15.968   7.051   6.725
 5233W        W12542  10.158   8.850   0.159
 5234W        W12543   0.959   0.731   8.460
 5235W        W12544  18.874   7.695   7.273
 5236W        W12545   3.421   5.404   8.167
 5237W        W12546   3.873   2.928   8.860
 5238W        W12547   2.096   0.010   6.820
 5239W        W12548  10.526   6.229   9.172
 5240W        W12549  13.777   3.512   1.034
 5241W        W12550   1.623   8.399   6.759
 5242W        W12551  11.201   2.757   9.887
 5243W        W12552   5.226   5.171   9.885
 5244W        W12553   3.202   3.568   0.005
 5245W        W12554  12.117   5.903   6.823
 5246W        W12555  14.512   2.890   9.431
 5247W        W12556  16.315   3.271   0.673
 5248W        W12557   9.240   5.990   7.276
 5249W        W12558  15.062   5.082   9.922
 5250W        W12559  13.377   9.664   9.197
 5251W        W12560  12.693   1.823   7.391
 5252W        W12561   3.818   5.815   9.441
 5253W        W12562  16.156   4.313   9.367
 5254W        W12563  18.865   3.064   9.932
 5255W        W12564  15.988   1.198   8.474
 5256W        W12565  10.556   4.299   6.832
 5257W        W12566  12.959   0.905   9.911
 5258W        W12567   1.805   7.215   8.045
 5259W        W12568  12.340   7.849   8.135
 5260W        W12569   6.331   7.383   7.028
 5261W        W12570  16.422   5.526   7.700
 5262W        W12571  11.007   3.722   8.490
 5263W        W12572  14.665   4.508   7.446
 5264W        W12573  11.812   4.068   8.982
 5265W        W12574  15.768   9.850   7.281
 5266W        W12575   4.986   5.329   8.568
 5267W        W12576  15.574   1.140   6.568
 5268W        W12577   2.763   9.117   9.256
 5269W        W12578   0.767   2.500   9.676
 5270W        W12579   8.009   9.950   0.434
 5271W        W12580  13.122   0.838   8.854
 5272W        W12581  13.494   4.249   6.757
 5273W        W12582   7.250   0.770   9.345
 5274W        W12583   4.760   3.257   0.759
 5275W        W12584  14.458   9.886   7.144
 5276W        W12585   6.608   8.759   0.662
 5277W        W12586  17.344   7.771   0.429
 5278W        W12587   2.931   9.090   1.185
 5279W        W12588  19.104   8.251   0.779
 5280W        W12589  17.688   6.879   9.239
 5281W        W12590   1.741   4.390   6.951
 5282W        W12591  17.294   1.207   7.687
 5283W        W12592  18.903   5.830   0.025
 5284W        W12593   1.480   9.342   7.221
 5285W        W12594   9.320   8.609   0.615
 5286W        W12595   5.953   4.405   7.247
 5287W        W12596   8.093   0.131   8.228
 5288W        W12597   1.249   7.150   0.511
 5289W        W12598  15.014   3.253   6.834
 5290W        W12599  15.637   0.754   0.127
 5291W        W12600   0.710   3.414   0.169
 5292W        W12601   8.935   2.202   0.237
 5293W        W12602   2.972   4.408   9.378
 5294W        W12603   4.240   9.518   8.483
 5295W        W12604  10.924   5.015   5.819
 5296W        W12605  10.126   9.157   9.741
 5297W        W12606   3.122   9.329   5.739
 5298W        W12607   6.729   1.419   7.366
 5299W        W12608  19.348   2.823   8.694
 5300W        W12609   9.641   0.554   7.508
 5301W        W12610   5.635   4.442   9.329
 5302W        W12611   8.706   3.610   7.652
 5303W        W12612   8.844   6.745   7.505
 5304W        W12613   0.897   9.612   8.005
 5305W        W12614  17.099   9.969   0.623
 5306W        W12615  14.307   6.372   9.982
 5307W        W12616   8.417   9.910   7.435
 5308W        W12617   3.925   6.000   0.811
 5309W        W12618  10.451   0.925   9.613
 5310W        W12619   4.978   7.469   9.007
 5311W        W12620   4.188   1.977   6.349
 5312W        W12621  12.347   5.717   8.985
 5313W        W12622  11.303   5.170   7.181
 5314W        W12623  17.877   8.075   8.153
 5315W        W12624  11.544   8.315   8.499
 5316W        W12625  12.259   4.300   8.684
 5317W        W12626  15.811   6.457   9.879
 5318W        W12627   9.002   6.834   6.770
 5319W        W12628   6.000   5.348   9.320
 5320W        W12629   7.139   4.878   7.236
 5321W        W12630   6.659   3.427   8.732
 5322W        W12631   1.339   5.239   6.436
 5323W        W12632  16.760   4.988   7.996
 5324W        W12633  17.444   5.713   0.547
 5325W        W12634   5.342   5.081   6.469
 5326W        W12635  18.082   7.124   8.065
 5327W        W12636  15.511   6.814   6.736
 5328W        W12637  11.764   3.569   0.090
 5329W        W12638  11.644   5.271   9.311
 5330W        W12639   3.731   1.000   7.787
 5331W        W12640  19.675   8.144   6.989
 5332W        W12641   7.911   1.678   7.407
 5333W        W12642   3.489   4.142   7.052
 5334W        W12643  11.605   6.496   9.763
 5335W        W12644  16.268   9.830   6.419
 5336W        W12645   8.650   5.563   9.762
 5337W        W12646   0.574   0.789   7.362
 5338W        W12647   4.966   1.794   6.289
 5339W        W12648   1.538   4.116   8.713
 5340W        W12649   1.854   1.667   0.149
 5341W        W12650   3.434   7.261   0.999
 5342W        W12651   4.635   7.499   7.393
 5343W        W12652   7.307   4.513   7.671
 5344W        W12653  19.374   7.720   9.331
 5345W        W12654   6.970   2.125   9.850
 5346W        W12655   3.727   9.025   6.696
 5347W        W12656   6.241   9.767   7.551
 5348W        W12657   7.742   2.628   0.253
 5349W        W12658   6.186   9.311   9.271
 5350W        W12659   2.648   8.091   0.378
 5351W        W12660   0.967   2.976   9.500
 5352W        W12661   4.948   2.951   9.051
 5353W        W12662  10.170   3.850   7.503
 5354W        W12663   2.403   4.128   8.992
 5355W        W12664   4.502   2.834   0.869
 5356W        W12665   6.110   4.783   6.920
 5357W        W12666  11.651   2.939   0.478
 5358W        W12667   1.883   1.030   7.307
 5359W        W12668   4.288   5.983   9.298
 5360W        W12669   4.997   6.947   0.762
 5361W        W12670  11.497   6.367   6.741
 5362W        W12671  15.189   3.045   8.573
 5363W        W12672   5.105   5.974   0.706
 5364W        W12673  10.750   3.270   9.118
 5365W        W12674   5.948   3.985   6.284
 5366W        W12675  19.901   6.150   1.002
 5367W        W12676   7.236   0.248   8.356
 5368W        W12677   4.343   0.767   9.483
 5369W        W12678   8.635   7.789   9.081
 5370W        W12679  19.051   8.685   9.604
 5371W        W12680   8.440   9.774   8.456
 5372W        W12681   5.336   8.569   7.905
 5373W        W12682  15.120   0.125   0.750
 5374W        W12683   4.609   2.241   8.008
 5375W        W12684  15.474   1.271   8.478
 5376W        W12685  14.565   9.877   6.143
 5377W        W12686  12.520   8.917   6.571
 5378W        W12687   9.311   8.765   7.094
 5379W        W12688  16.532   5.234   0.958
 5380W        W12689  13.029   1.254   8.060
 5381W        W12690  17.417   1.703   6.021
 5382W        W12691   3.577   6.257   8.531
 5383W        W12692   7.496   4.116   8.850
 5384W        W12693  19.919   9.476   9.830
 5385W        W12694   0.854   7.546   7.261
 5386W        W12695   2.950   8.342   8.740
 5387W        W12696   4.001   6.277   5.979
 5388W        W12697  11.813   0.638   0.710
 5389W        W12698  12.220   2.689   8.142
 5390W        W12699   6.920   4.500   8.439
 5391W        W12700   3.545   7.546   8.031
 5392W        W12701   8.942   8.345   7.010
 5393W        W12702   9.948   5.410   0.324
 5394W        W12703   8.612   0.034   8.866
 5395W        W12704  15.692   8.140   9.647
 5396W        W12705  12.693   1.123   8.915
 5397W        W12706   2.570   1.492   0.632
 5398W        W12707  18.282   5.680   0.581
 5399W        W12708   2.636   5.422   0.559
 5400W        W12709  14.535   8.859   7.776
 5401W        W12710  15.465   3.738   0.368
 5402W        W12711   0.797   0.400   6.506
 5403W        W12712  15.940   6.642   6.408
 5404W        W12713  17.220   9.634   0.207
 5405W        W12714   0.226   4.542   6.413
 5406W        W12715  11.530   8.868   8.847
 5407W        W12716   4.612   1.531   6.532
 5408W        W12717  12.983   1.736   8.863
 5409W        W12718   3.070   6.330   8.462
 5410W        W12719  16.975   2.028   7.341
 5411W        W12720  13.004   6.769   7.511
 5412W        W12721   2.822   5.022   8.219
 5413W        W12722   3.796   4.110   8.493
 5414W        W12723  11.805   7.944   8.177
 5415W        W12724  17.737   1.065   6.524
 5416W        W12725   7.230   4.736   8.120
 5417W        W12726   5.147   4.873   0.300
 5418W        W12727  17.754   2.790   6.166
 5419W        W12728   4.317   6.947   7.325
 5420W        W12729  16.274   9.792   8.057
 5421W        W12730  11.676   6.862   7.452
 5422W        W12731   3.339   3.342   6.666
 5423W        W12732   8.111   5.509   9.729
 5424W        W12733  10.185   5.061   8.130
 5425W        W12734   5.752   2.852   6.398
 5426W        W12735  16.661   6.924   8.913
 5427W        W12736   3.612   6.522   8.970
 5428W        W12737   9.333   2.207   7.439
 5429W        W12738  18.742   3.955   0.053
 5430W        W12739  18.073   9.019   6.387
 5431W        W12740  16.960   2.481   8.143
 5432W        W12741   0.811   8.062   0.295
 5433W        W12742   2.902   0.142   8.332
 5434W        W12743   5.993   1.114   9.872
 5435W        W12744   0.334   8.078   9.301
 5436W        W12745  11.470   6.223   8.065
 5437W        W12746   9.611   1.940   8.768
 5438W        W12747   7.516   3.221   7.966
 5439W        W12748   7.379   1.323   0.122
 5440W        W12749  19.843   6.003   9.963
 5441W        W12750   6.750   6.667   0.229
 5442W        W12751   8.357   4.492   7.264
 5443W        W12752  19.577   9.122   7.048
 5444W        W12753   0.590   5.058   7.916
 5445W        W12754   4.845   6.474   9.897
 5446W        W12755  11.457   8.112   7.772
 5447W        W12756  14.994   5.157   6.052
 5448W        W12757   5.354   3.582   8.576
 5449W        W12758  16.364   0.015   9.319
 5450W        W12759   1.463   1.294   9.660
 5451W        W12760  13.082   9.953   8.874
 5452W        W12761  10.687   9.910   6.786
 5453W        W12762   2.001   5.033   9.910
 5454W        W12763   4.625   8.006   0.076
 5455W        W12764  13.464   2.283   6.897
 5456W        W12765  12.339   7.810   0.621
 5457W        W12766   3.813   5.973   7.028
 5458W        W12767   6.836   8.360   8.013
 5459W        W12768   5.036   2.330   7.684
 5460W        W12769   3.982   2.402   6.114
 5461W        W12770  18.197   9.344   7.167
 5462W        W12771  17.777   3.241   6.416
 5463W        W12772   2.511   2.530   0.482
 5464W        W12773   3.438   5.064   6.918
 5465W        W12774   8.046   5.790   7.461
 5466W        W12775  17.923   6.611   0.649
 5467W        W12776  17.246   9.299   8.280
 5468W        W12777  19.882   2.331   8.124
 5469W        W12778  17.973   5.469   6.956
 5470W        W12779   3.766   8.747   7.171
 5471W        W12780   5.968   4.020   9.640
 5472W        W12781  14.957   7.511   0.447
 5473W        W12782   1.142   8.651   7.991
 5474W        W12783  13.119   2.155   9.737
 5475W        W12784   2.202   3.751   8.037
 5476W        W12785  18.107   9.568   0.552
 5477W        W12786  10.878   6.472   0.480
 5478W        W12787   8.989   0.403   8.636
 5479W        W12788  13.588   5.227   7.799
 5480W        W12789   1.502   0.274   5.958
 5481W        W12790  17.164   0.880   0.830
 5482W        W12791  18.464   0.737   6.474
 5483W        W12792   4.461   9.348   8.898
 5484W        W12793   1.687   9.805   7.085
 5485W        W12794   7.159   6.226   0.536
 5486W        W12795  16.013   8.572   7.671
 5487W        W12796  17.950   9.530   8.811
 5488W        W12797  16.036   0.822   9.287
 5489W        W12798   6.889   5.927   8.198
 5490W        W12799  10.712   6.622   7.872
 5491W        W12800  19.128   9.206   9.448
 5492W        W12801  18.296   4.231   7.144
 5493W        W12802  16.849   3.354   7.663
 5494W        W12803   3.777   2.274   7.502
 5495W        W12804   8.319   3.084   8.418
 5496W        W12805   3.466   6.887   7.034
 5497W        W12806   8.685   7.047   6.219
 5498W        W12807   8.910   8.217   8.883
 5499W        W12808   6.447   5.522   8.481
 5500W        W12809  15.348   3.940   8.203
 5501W        W12810   2.460   5.668   9.480
 5502W        W12811  12.280   8.317   0.640
 5503W        W12812  18.355   1.737   9.973
 5504W        W12813   0.154   2.108   6.880
 5505W        W12814   2.088   2.792   9.581
 5506W        W12815   9.512   4.985   7.439
 5507W        W12816   5.386   4.668   8.945
 5508W        W12817   8.740   6.494   8.949
 5509W        W12818  14.395   1.606   7.015
 5510W        W12819  13.444   9.253   8.405
 5511W        W12820  10.997   6.192   7.843
 5512W        W12821   9.601   1.838   0.065
 5513W        W12822  16.614   2.692   0.082
 5514W        W12823  11.908   5.517   7.136
 5515W        W12824   7.149   8.714   0.140
 5516W        W12825   7.333   3.529   0.085
 5517W        W12826   7.670   6.472   6.277
 5518W        W12827  10.836   0.290   6.420
 5519W        W12828  16.945   2.524   9.173
 5520W        W12829  18.111   4.433   0.255
 5521W        W12830   1.713   9.273   9.260
 5522W        W12831  12.476   0.212   9.418
 5523W        W12832  11.673   5.501   0.211
 5524W        W12833   9.337   6.007   0.707
 5525W        W12834  12.113   0.992   7.067
 5526W        W12835  12.923   4.437   7.898
 5527W        W12836   4.219   5.933   8.789
 5528W        W12837   2.932   4.185   8.855
 5529W        W12838  16.073   9.513   7.043
 5530W        W12839  13.046   3.607   9.315
 5531W        W12840   1.626   5.723   7.949
 5532W        W12841   0.101   3.085   8.585
 5533W        W12842  14.228   9.103   6.529
 5534W        W12843  17.345   9.093   0.349
 5535W        W12844   2.740   6.559   9.747
 5536W        W12845  13.963   2.159   6.636
 5537W        W12846  11.024   9.503   6.786
 5538W        W12847   8.037   1.376   0.727
 5539W        W12848   5.275   5.919   6.272
 5540W        W12849   2.804   2.513   9.229
 5541W        W12850  17.949   4.068   6.335
 5542W        W12851   5.157   7.463   7.348
 5543W        W12852  17.338   6.374   8.746
 5544W        W12853   0.751   1.013   7.794
 5545W        W12854   8.287   2.188   6.626
 5546W        W12855  10.092   0.485   7.758
 5547W        W12856  19.190   6.863   7.469
 5548W        W12857  18.900   3.485   9.572
 5549W        W12858  13.035   1.200   0.957
 5550W        W12859  11.143   9.211   9.641
 5551W        W12860   2.329   8.916   9.645
 5552W        W12861   0.211   8.946   7.763
 5553W        W12862   0.501   2.972   8.267
 5554W        W12863   6.112   5.178   8.784
 5555W        W12864  18.782   5.814   9.144
 5556W        W12865  15.330   9.772   1.112
 5557W        W12866  16.682   1.509   6.693
 5558W        W12867   5.918   6.551   6.601
 5559W        W12868   1.067   1.728   8.088
 5560W        W12869  19.887   6.731   6.987
 5561W        W12870  11.605   9.848   0.310
 5562W        W12871  17.094   1.657   6.431
 5563W        W12872  17.303   1.344   0.254
 5564W        W12873   1.123   5.552   8.458
 5565W        W12874  10.158   9.932   5.921
 5566W        W12875   6.967   0.816   7.917
 5567W        W12876  13.376   3.168   0.348
 5568W        W12877  15.081   2.095   0.316
 5569W        W12878  19.902   3.610   0.263
 5570W        W12879   9.467   9.048   7.814
 5571W        W12880   5.166   0.731   0.093
 5572W        W12881   6.214   9.727   7.019
 5573W        W12882   4.343   4.492   9.840
 5574W        W12883  17.692   9.900   7.587
 5575W        W12884   7.077   7.185   0.280
 5576W        W12885  18.646   3.507   6.329
 5577W        W12886   7.206   6.461   6.512
 5578W        W12887  10.531   6.360   8.270
 5579W        W12888   6.944   9.904   9.311
 5580W        W12889  11.257   8.988   0.127
 5581W        W12890   2.916   8.038   0.797
 5582W        W12891   2.161   3.059   8.097
 5583W        W12892   9.234   0.379   9.496
 5584W        W12893  17.018   7.782   9.870
 5585W        W12894   7.037   9.340   6.148
 5586W        W12895  13.824   5.955   8.310
 5587W        W12896   5.598   1.387   0.082
 5588W        W12897   7.387   5.893   8.438
 5589W        W12898   2.344   9.238   0.053
 5590W        W12899   4.276   9.905   0.996
 5591W        W12900  11.967   6.143   7.886
 5592W        W12901   7.848   6.650   9.908
 5593W        W12902   9.436   9.870   8.104
 5594W        W12903  16.087   6.787   8.969
 5595W        W12904   7.941   4.487   7.570
 5596W        W12905  11.727   0.444   8.178
 5597W        W12906  11.181   8.891   7.384
 5598W        W12907   5.732   6.038   5.978
 5599W        W12908   2.579   1.626   6.965
 5600W        W12909   9.441   2.809   8.852
 5601W        W12910  16.844   0.662   8.265
 5602W        W12911  15.466   1.945   1.194
 5603W        W12912  17.585   1.545   6.470
 5604W        W12913  15.318   8.152   7.111
 5605W        W12914   6.547   9.627   9.094
 5606W        W12915  11.409   9.276   7.618
 5607W        W12916  13.522   0.975   8.517
 5608W        W12917  12.039   0.517   9.478
 5609W        W12918   8.839   5.076   0.630
 5610W        W12919  16.538   0.369   1.119
 5611W        W12920   3.677   9.777   9.134
 5612W        W12921   4.553   9.798   9.832
 5613W        W12922   1.660   9.173   8.319
 5614W        W12923  11.619   2.963   6.144
 5615W        W12924  13.909   1.676   9.963
 5616W        W12925  10.960   2.824   0.766
 5617W        W12926   4.045   2.190   0.239
 5618W        W12927   6.226   9.673   0.470
 5619W        W12928  10.899   4.968   7.918
 5620W        W12929   7.865   1.308   0.240
 5621W        W12930   7.062   6.356   6.038
 5622W        W12931   8.727   1.390   7.730
 5623W        W12932  17.973   3.116   0.517
 5624W        W12933   0.161   7.746   6.254
 5625W        W12934   3.705   3.453   8.839
 5626W        W12935   8.439   4.152   6.092
 5627W        W12936   8.653   3.413   9.754
 5628W        W12937  11.855   7.408   0.326
 5629W        W12938  11.423   3.761   0.740
 5630W        W12939  17.759   7.793   8.600
 5631W        W12940  10.265   2.814   8.000
 5632W        W12941  11.753   1.704   6.647
 5633W        W12942  19.893   8.236   7.855
 5634W        W12943  12.111   8.755   7.810
 5635W        W12944   9.264   9.662   7.348
 5636W        W12945  18.439   8.795   0.212
 5637W        W12946   3.128   1.747   8.815
 5638W        W12947   0.221   1.167   6.876
 5639W        W12948  17.175   3.726   9.862
 5640W        W12949   9.146   9.545   0.448
 5641W        W12950   7.928   1.841   8.888
 5642W        W12951  17.508   4.898   6.311
 5643W        W12952   0.323   0.199   0.310
 5644W        W12953   9.483   1.752   9.566
 5645W        W12954   8.713   0.222   9.318
 5646W        W12955  16.425   9.497   9.443
 5647W        W12956   5.516   5.026   8.132
 5648W        W12957   3.883   0.509   7.911
 5649W        W12958  13.522   5.902   7.888
 5650W        W12959   4.770   2.503   0.315
 5651W        W12960   0.531   0.885   8.227
 5652W        W12961   4.139   6.346   6.461
 5653W        W12962   8.881   1.858   0.832
 5654W        W12963   5.136   1.522   6.686
 5655W        W12964  17.721   1.517   1.111
 5656W        W12965   5.426   5.112   9.410
 5657W        W12966   2.082   4.567   9.678
 5658W        W12967   2.251   0.592   0.376
 5659W        W12968  12.596   0.681   8.122
 5660W        W12969   3.028   1.749   7.898
 5661W        W12970   5.370   8.237   9.863
 5662W        W12971  17.814   2.685   0.739
 5663W        W12972  13.199   4.040   0.074
 5664W        W12973   6.816   3.463   0.128
 5665W        W12974   8.826   9.823   7.155
 5666W        W12975   3.919   6.790   8.680
 5667W        W12976   1.795   5.686   6.635
 5668W        W12977  17.135   5.562   8.439
 5669W        W12978   2.296   4.729   8.649
 5670W        W12979   7.984   9.447   0.515
 5671W        W12980  16.592   5.881   9.559
 5672W        W12981   8.881   7.912   7.274
 5673W        W12982   4.777   5.927   6.543
 5674W        W12983  14.932   8.908   9.858
 5675W        W12984   5.083   2.286   8.212
 5676W        W12985  17.051   4.592   5.601
 5677W        W12986   9.687   4.977   0.245
 5678W        W12987   0.642   9.923   8.362
 5679W        W12988   5.842   0.962   6.645
 5680W        W12989   8.010   8.983   7.478
 5681W        W12990  17.385   2.911   7.522
 5682W        W12991   1.813   7.956   6.555
 5683W        W12992  10.407   0.105   7.637
 5684W        W12993   7.278   2.603   0.497
 5685W        W12994   0.407   1.776   8.554
 5686W        W12995  10.541   2.564   0.591
 5687W        W12996   6.320   6.527   1.066
 5688W        W12997  14.762   7.879   9.478
 5689W        W12998  19.292   6.332   8.269
 5690W        W12999  15.521   4.266   9.632
 5691W        W13000   9.215   0.937   0.286
 5692W        W13001  13.828   3.134   0.085
 5693W        W13002  11.166   2.682   7.520
 5694W        W13003  17.784   0.852   8.677
 5695W        W13004   2.101   6.804   8.015
 5696W        W13005  14.589   7.579   0.765
 5697W        W13006   4.581   0.699   6.621
 5698W        W13007  16.859   0.687   7.078
 5699W        W13008  17.834   3.342   7.972
 5700W        W13009  10.728   8.911   9.329
 5701W        W13010   0.904   0.077   0.867
 5702W        W13011   7.880   4.433   0.164
 5703W        W13012  11.388   0.387   6.444
 5704W        W13013  13.233   6.111   6.150
 5705W        W13014   6.505   6.942   0.837
 5706W        W13015  18.989   2.906   6.836
 5707W        W13016  12.558   3.500   7.615
 5708W        W13017  15.753   6.129   9.479
 5709W        W13018   1.886   9.561   8.090
 5710W        W13019  17.344   2.140   8.687
 5711W        W13020   6.807   6.690   7.396
 5712W        W13021   7.903   6.274   0.643
 5713W        W13022   8.872   1.320   9.913
 5714W        W13023  11.568   7.433   8.346
 5715W        W13024   1.050   7.512   0.885
 5716W        W13025  19.525   3.732   8.827
 5717W        W13026  19.119   3.415   6.541
 5718W        W13027  12.683   1.328  10.000
 5719W        W13028  10.384   9.359   9.307
 5720W        W13029   8.686   7.235   9.508
 5721W        W13030  16.460   8.372   7.451
 5722W        W13031  18.056   4.347   8.976
 5723W        W13032   4.057   5.931   9.898
 5724W        W13033   2.118   4.162   7.719
 5725W        W13034   3.387   1.392   0.115
 5726W        W13035   0.603   2.969   9.868
 5727W        W13036  19.810   9.793   9.435
 5728W        W13037  15.125   6.989   6.369
 5729W        W13038   9.336   7.987   8.700
 5730W        W13039  10.587   4.809   6.729
 5731W        W13040  17.388   2.604   8.932
 5732W        W13041  12.577   6.105   7.226
 5733W        W13042  10.224   3.229   8.891
 5734W        W13043   1.768   6.224   9.917
 5735W        W13044  16.008   2.008   7.835
 5736W        W13045   7.473   5.916   0.006
 5737W        W13046   1.779   2.485   6.287
 5738W        W13047   2.023   6.638   0.649
 5739W        W13048  12.993   9.442   9.511
 5740W        W13049   9.024   7.960   0.230
 5741W        W13050   0.334   8.943   6.358
 5742W        W13051  13.068   3.658   0.880
 5743W        W13052  12.049   4.638   6.443
 5744W        W13053   7.455   9.276   6.895
 5745W        W13054   2.035   5.567   8.255
 5746W        W13055  16.234   0.442   9.577
 5747W        W13056   6.851   4.769   9.861
 5748W        W13057   5.799   0.609   7.176
 5749W        W13058  13.976   5.410   5.831
 5750W        W13059   1.102   9.235   0.896
 5751W        W13060   6.238   1.372   7.266
 5752W        W13061   5.009   1.387   9.025
 5753W        W13062   6.483   8.784   8.533
 5754W        W13063   2.340   6.869   8.459
 5755W        W13064   6.715   0.011   8.830
 5756W        W13065  10.042   4.326   6.116
 5757W        W13066  17.680   5.580   0.006
 5758W        W13067  16.061   7.368   7.465
 5759W        W13068   7.044   3.620   7.383
 5760W        W13069  18.421   5.262   6.184
 5761W        W13070   5.452   2.157   9.972
 5762W        W13071  18.120   0.938   0.698
 5763W        W13072   5.221   6.033   6.822
 5764W        W13073  12.442   8.844   9.612
 5765W        W13074   7.550   5.093   6.526
 5766W        W13075   2.508   2.186   7.126
 5767W        W13076   4.911   6.416   0.802
 5768W        W13077   1.942   6.160   0.871
 5769W        W13078   5.717   7.885   7.660
 5770W        W13079   8.060   3.692   6.755
 5771W        W13080   5.049   5.736   7.666
 5772W        W13081   0.794   3.530   0.685
 5773W        W13082   8.497   1.515   9.606
 5774W        W13083  10.624   5.239   6.430
 5775W        W13084   7.633   8.922   0.090
 5776W        W13085  12.778   0.495   6.379
 5777W        W13086  17.439   1.780   0.511
 5778W        W13087   9.475   4.234   9.760
 5779W        W13088  16.200   8.885   8.170
 5780W        W13089  13.870   2.055   6.141
 5781W        W13090   3.284   2.139   7.344
 5782W        W13091   1.301   4.389   0.905
 5783W        W13092   1.028   0.679   7.160
 5784W        W13093  13.882   2.311   7.863
 5785W        W13094   7.228   0.384   7.881
 5786W        W13095   5.341   2.879   5.949
 5787W        W13096  13.064   6.908   0.214
 5788W        W13097  13.490   9.701   8.666
 5789W        W13098  19.901   4.733   8.685
 5790W        W13099  15.047   4.092   6.848
 5791W        W13100  15.585   5.835   6.751
 5792W        W13101  15.316   5.466   7.024
 5793W        W13102  11.014   2.248   6.646
 5794W        W13103   3.685   8.788   0.216
 5795W        W13104   9.341   1.702   8.335
 5796W        W13105   7.524   0.204   0.884
 5797W        W13106  11.104   7.934   7.379
 5798W        W13107   1.232   4.782   0.527
 5799W        W13108   2.199   0.729   9.867
 5800W        W13109   7.191   8.861   6.382
 5801W        W13110   0.990   1.087   9.626
 5802W        W13111  14.098   7.995   8.856
 5803W        W13112  16.008   6.603   9.428
 5804W        W13113   8.737   9.829   0.424
 5805W        W13114  13.165   1.757   9.358
 5806W        W13115   4.210   8.596   8.318
 5807W        W13116  18.043   9.035   7.547
 5808W        W13117  10.422   2.131   9.735
 5809W        W13118  15.090   7.584   9.213
 5810W        W13119  10.498   8.415   8.454
 5811W        W13120   8.956   4.249   9.721
 5812W        W13121  16.340   6.720   9.793
 5813W        W13122   5.013   2.796   9.521
 5814W        W13123   8.724   8.338   6.011
 5815W        W13124   3.138   3.705   8.034
 5816W        W13125  17.337   6.605   7.753
 5817W        W13126  11.898   0.322   6.399
 5818W        W13127  19.830   8.472   7.364
 5819W        W13128  12.518   7.136   6.894
 5820W        W13129  19.276   0.540   7.996
 5821W        W13130   5.174   4.868   8.502
 5822W        W13131  15.904   0.409   6.963
 5823W        W13132  15.980   2.721   7.630
 5824W        W13133  13.860   8.453   7.493
 5825W        W13134   5.837   0.851   8.838
 5826W        W13135  17.796   5.903   6.223
 5827W        W13136   0.618   2.218   8.763
 5828W        W13137   6.712   2.827   6.359
 5829W        W13138   6.671   5.693   9.832
 5830W        W13139  12.651   6.196   0.393
 5831W        W13140   7.757   7.410   8.177
 5832W        W13141  13.523   9.788   7.057
 5833W        W13142   7.852   1.048   6.762
 5834W        W13143  15.369   7.845   7.537
 5835W        W13144   0.358   0.192   8.742
 5836W        W13145  14.421   0.350   9.486
 5837W        W13146   6.252   5.267   7.050
 5838W        W13147   4.777   6.661   8.961
 5839W        W13148   4.274   8.999   6.643
 5840W        W13149   6.379   9.336   7.799
 5841W        W13150   9.388   7.725   8.224
 5842W        W13151  15.063   7.405   8.296
 5843W        W13152  19.757   0.904   7.290
 5844W        W13153   6.584   6.262   7.638
 5845W        W13154   0.601   8.950   8.726
 5846W        W13155  17.290   4.523   6.048
 5847W        W13156  18.691   6.947   6.599
 5848W        W13157   7.465   1.244   9.586
 5849W        W13158   0.348   0.968   9.112
 5850W        W13159  13.362   4.711   6.591
 5851W        W13160   2.785   0.097   9.834
 5852W        W13161   4.676   9.276   8.393
 5853W        W13162  15.969   4.149   0.376
 5854W        W13163  12.915   3.445   7.247
 5855W        W13164   7.777   8.599   8.360
 5856W        W13165   9.392   7.719   0.543
 5857W        W13166   1.244   3.303   0.793
 5858W        W13167  18.922   9.963   0.384
 5859W        W13168  13.711   1.725   6.506
 5860W        W13169  19.762   1.776   6.779
 5861W        W13170  15.543   8.820   0.807
 5862W        W13171  14.620   3.600   7.774
 5863W        W13172  12.677   5.201   8.300
 5864W        W13173   5.661   3.392   7.043
 5865W        W13174  19.891   3.599   7.294
 5866W        W13175   5.514   9.344   7.055
 5867W        W13176  17.942   6.129   9.342
 5868W        W13177   7.934   6.673   0.967
 5869W        W13178  11.154   2.943   9.115
 5870W        W13179  18.723   4.446   6.387
 5871W        W13180   2.987   0.950   0.767
 5872W        W13181   9.647   5.546   0.718
 5873W        W13182   0.613   8.507   9.337
 5874W        W13183  19.850   0.448   6.425
 5875W        W13184   7.537   9.878   9.727
 5876W        W13185   7.206   6.409   1.252
 5877W        W13186  17.880   0.734   9.717
 5878W        W13187  19.936   0.398   0.607
 5879W        W13188  10.505   1.613   0.569
 5880W        W13189   6.591   7.794   7.218
 5881W        W13190   5.944   5.578   8.470
 5882W        W13191  15.878   3.724   0.656
 5883W        W13192   0.236   1.275   8.422
 5884W        W13193  15.386   7.350   8.873
 5885W        W13194   1.614   1.714   0.630
 5886W        W13195  19.129   7.848   8.880
 5887W        W13196  18.927   8.659   7.452
 5888W        W13197  14.918   3.519   9.219
 5889W        W13198  15.857   4.859   8.768
 5890W        W13199  16.254   8.381   8.879
 5891W        W13200   7.420   5.866   6.896
 5892W        W13201   6.852   0.440   8.609
 5893W        W13202  16.599   3.130   8.654
 5894W        W13203   8.833   1.076   6.857
 5895W        W13204  11.934   8.499   7.142
 5896W        W13205  10.400   2.935   9.279
 5897W        W13206   0.290   2.510   8.409
 5898W        W13207   6.463   6.028   8.477
 5899W        W13208   7.271   0.471   6.310
 5900W        W13209  17.687   0.893   8.182
 5901W        W13210  18.615   6.541   9.528
 5902W        W13211   8.391   9.128   6.741
 5903W        W13212  18.414   8.047   8.837
 5904W        W13213   8.412   0.122   0.159
 5905W        W13214   6.029   8.454   9.221
 5906W        W13215   0.047   7.462   6.663
 5907W        W13216   6.785   8.068   5.842
 5908W        W13217   9.612   4.147   6.384
 5909W        W13218   0.475   6.826   8.163
 5910W        W13219   0.084   5.433   0.404
 5911W        W13220  16.126   5.428   6.139
 5912W        W13221  15.528   2.998   9.417
 5913W        W13222   7.421   4.370   9.285
 5914W        W13223  18.652   2.157   9.478
 5915W        W13224   2.700   3.739   7.781
 5916W        W13225  18.303   4.338   6.098
 5917W        W13226   6.536   6.949   9.378
 5918W        W13227   5.144   7.239   9.461
 5919W        W13228   3.057   0.608   7.451
 5920W        W13229  16.920   8.394   6.161
 5921W        W13230  15.488   1.008   7.057
 5922W        W13231   8.363   1.135   9.265
 5923W        W13232   0.619   9.363   0.735
 5924W        W13233   2.213   2.039   6.016
 5925W        W13234   1.848   9.982   0.176
 5926W        W13235  19.961   0.952   9.800
 5927W        W13236  14.443   5.571   8.009
 5928W        W13237  18.693   0.347   6.743
 5929W        W13238  18.850   9.234   0.787
 5930W        W13239   5.079   3.862   0.226
 5931W        W13240   5.957   0.805   7.987
 5932W        W13241  16.938   8.385   6.683
 5933W        W13242   9.122   2.036   7.884
 5934W        W13243  13.120   0.459   0.513
 5935W        W13244   3.181   6.807   8.034
 5936W        W13245   1.443   9.683   0.264
 5937W        W13246   4.048   9.219   7.055
 5938W        W13247  12.181   2.493   1.185
 5939W        W13248   4.584   6.697   7.706
 5940W        W13249  16.842   0.367   7.488
 5941W        W13250   8.570   2.664   7.463
 5942W        W13251   6.035   9.015   8.542
 5943W        W13252   2.599   2.912   8.349
 5944W        W13253  13.938   9.750   8.422
 5945W        W13254  13.743   5.929   6.532
 5946W        W13255  19.731   4.281   8.899
 5947W        W13256  12.146   6.082   0.755
 5948W        W13257  12.997   5.606   8.360
 5949W        W13258   4.358   1.857   8.696
 5950W        W13259   0.081   8.521   9.311
 5951W        W13260  11.326   6.806   6.415
 5952W        W13261   3.396   6.304   8.052
 5953W        W13262  13.372   4.333   6.254
 5954W        W13263   6.405   9.966   6.179
 5955W        W13264   7.640   2.757   6.637
 5956W        W13265  19.616   7.864   6.209
 5957W        W13266  10.082   0.704   6.193
 5958W        W13267   7.364   0.499   8.824
 5959W        W13268  19.092   1.031   9.670
 5960W        W13269   7.623   9.729   0.734
 5961W        W13270  14.123   3.930   9.080
 5962W        W13271  13.044   2.410   6.607
 5963W        W13272   0.342   5.364   6.829
 5964W        W13273  12.801   8.212   0.015
 5965W        W13274   0.493   7.969   6.622
 5966W        W13275  19.434   0.074   9.692
 5967W        W13276   0.737   5.751   6.913
 5968W        W13277   3.272   9.245   8.339
 5969W        W13278   9.068   7.363   9.214
 5970W        W13279   0.718   1.156   0.071
 5971W        W13280  10.644   8.428   6.287
 5972W        W13281  14.320   6.658   6.087
 5973W        W13282  19.495   1.237   9.099
 5974W        W13283  10.845   2.962   9.543
 5975W        W13284   2.944   1.305   0.344
 5976W        W13285  16.261   9.059   6.862
 5977W        W13286  10.672   1.020   8.030
 5978W        W13287  15.356   0.108   7.484
 5979W        W13288   1.885   8.906   6.549
 5980W        W13289  12.832   6.764   5.882
 5981W        W13290   2.468   1.271   6.597
 5982W        W13291   3.752   1.295   8.247
 5983W        W13292   5.193   7.741   9.374
 5984W        W13293  19.433   5.088   9.295
 5985W        W13294   3.259   8.105   6.588
 5986W        W13295   9.398   9.539   8.520
 5987W        W13296   7.208   5.438   5.881
 5988W        W13297   8.456   9.779   9.304
 5989W        W13298  11.197   5.339   0.059
 5990W        W13299  15.078   4.190   9.381
 5991W        W13300  19.938   3.812   1.203
 5992W        W13301   9.529   9.704   9.308
 5993W        W13302  15.067   2.778   7.605
 5994W        W13303   8.607   2.549   6.431
 5995W        W13304  12.300   2.929   6.869
 5996W        W13305   1.532   1.577   9.244
 5997W        W13306  17.150   9.840   6.200
 5998W        W13307   5.790   5.201   6.787
 5999W        W13308   8.064   5.223   6.912
 6000W        W13309  11.811   0.086   7.818
 6001W        W13310  13.896   6.786   9.250
 6002W        W13311   1.219   4.476   8.004
 6003W        W13312  19.682   2.735   0.174
 6004W        W13313  11.122   7.459   8.063
 6005W        W13314   7.226   8.362   7.664
 6006W        W13315  16.477   1.332   0.815
 6007W        W13316   9.466   2.749   7.392
 6008W        W13317  16.858   3.935   8.870
 6009W        W13318  16.238   4.465   6.785
 6010W        W13319  10.457   7.775   9.690
 6011W        W13320   3.168   4.690   8.984
 6012W        W13321   1.105   8.066   9.771
 6013W        W13322  14.982   8.519   0.221
 6014W        W13323  16.835   5.745   0.376
 6015W        W13324   4.618   4.564   9.391
 6016W        W13325   6.330   3.947   9.309
 6017W        W13326  18.380   7.785   1.059
 6018W        W13327  15.941   6.905   7.267
 6019W        W13328  10.925   5.527   8.076
 6020W        W13329  13.648   4.011   0.352
 6021W        W13330  19.206   5.316   8.222
 6022W        W13331  19.105   8.968   7.831
 6023W        W13332   9.943   3.649   9.095
 6024W        W13333  16.618   7.809   0.846
 6025W        W13334   9.043   0.651   9.103
 6026W        W13335   6.321   8.422   7.849
 6027W        W13336  19.914   7.846   8.207
 6028W        W13337  14.259   8.466   0.808
 6029W        W13338   6.447   0.476   7.147
 6030W        W13339  14.922   2.147   9.822
 6031W        W13340   2.197   1.646   9.190
 6032W        W13341  15.335   9.968   8.338
 6033W        W13342  14.335   6.123   0.454
 6034W        W13343  15.480   1.864   6.195
 6035W        W13344   3.057   7.135   6.756
 6036W        W13345   7.567   0.138   6.603
 6037W        W13346  18.077   3.051   1.476
 6038W        W13347  17.840   5.102   8.066
 6039W        W13348  18.620   2.988   6.480
 6040W        W13349  15.505   4.510   6.133
 6041W        W13350   7.461   3.479   9.203
 6042W        W13351   8.826   6.137   8.038
 6043W        W13352  11.356   6.690   0.542
 6044W        W13353   4.048   2.043   0.721
 6045W        W13354   6.476   9.253   6.841
 6046W        W13355  11.044   7.574   0.384
 6047W        W13356  10.202   4.758   6.369
 6048W        W13357  17.738   2.294   6.926
 6049W        W13358  17.924   9.977   0.266
 6050W        W13359  11.714   7.380   9.412
 6051W        W13360   1.046   6.165   7.600
 6052W        W13361   2.571   4.152   7.484
 6053W        W13362  11.823   6.782   6.361
 6054W        W13363  14.921   4.428   8.700
 6055W        W13364  11.845   7.205   6.652
 6056W        W13365  14.995   7.144   7.849
 6057W        W13366  10.794   5.668   0.092
 6058W        W13367  12.414   8.569   0.030
 6059W        W13368   3.327   1.286   9.024
 6060W        W13369   1.510   6.244   9.440
 6061W        W13370  19.893   2.592   7.271
 6062W        W13371  17.959   0.929   0.216
 6063W        W13372  18.639   8.457   8.432
 6064W        W13373   8.359   6.163   0.807
 6065W        W13374   4.118   7.428   7.477
 6066W        W13375  17.646   9.939   8.959
 6067W        W13376   8.962   5.248   6.453
 6068W        W13377   7.540   7.769   6.558
 6069W        W13378  11.351   0.068   8.102
 6070W        W13379  14.992   5.195   6.582
 6071W        W13380  11.377   2.552   0.674
 6072W        W13381  10.382   9.349   0.179
 6073W        W13382  15.749   0.196   8.794
 6074W        W13383  15.796   7.545   6.638
 6075W        W13384  19.739   1.455   0.172
 6076W        W13385  13.854   6.447   9.722
 6077W        W13386   3.578   2.242   0.042
 6078W        W13387  15.897   9.903   8.385
 6079W        W13388  17.731   6.328   7.043
 6080W        W13389   0.451   7.708   0.172
 6081W        W13390   1.443   4.937   9.221
 6082W        W13391  15.081   6.652   6.999
 6083W        W13392   3.117   8.230   8.221
 6084W        W13393  17.333   9.910   8.000
 6085W        W13394  17.786   4.008   0.703
 6086W        W13395   5.973   0.372   8.733
 6087W        W13396  11.976   6.310   6.501
 6088W        W13397   7.531   9.489   8.106
 6089W        W13398  11.036   0.747   6.563
 6090W        W13399  12.845   5.404   0.749
 6091W        W13400   6.185   3.491   6.961
 6092W        W13401   7.090   4.765   9.370
 6093W        W13402  11.602   3.078   6.887
 6094W        W13403  17.181   7.419   6.993
 6095W        W13404  10.402   3.799   9.800
 6096W        W13405  18.386   3.917   9.027
 6097W        W13406  13.952   4.965   9.070
 6098W        W13407  17.004   9.239   7.840
 6099W        W13408  13.246   4.900   0.042
 6100W        W13409  12.127   6.900   0.945
 6101W        W13410   1.222   2.599   6.904
 6102W        W13411  14.108   3.720   7.677
 6103W        W13412   7.426   2.155   9.604
 6104W        W13413  19.139   0.003   7.912
 6105W        W13414  17.886   4.414   9.792
 6106W        W13415   5.797   9.409   0.330
 6107W        W13416  17.568   5.434   6.395
 6108W        W13417   5.454   9.274   6.561
 6109W        W13418  13.891   8.279   9.239
 6110W        W13419   2.986   9.726   7.028
 6111W        W13420   4.253   0.614   7.581
 6112W        W13421  10.314   0.931   7.626
 6113W        W13422  19.284   5.815   8.237
 6114W        W13423  14.086   6.981   8.735
 6115W        W13424   9.440   6.365   0.225
 6116W        W13425  12.050   6.164   9.704
 6117W        W13426  16.343   4.830   8.296
 6118W        W13427  12.586   3.866   7.274
 6119W        W13428  17.284   8.793   6.140
 6120W        W13429  14.288   6.490   7.868
 6121W        W13430   2.961   1.986   8.398
 6122W        W13431  16.905   8.458   7.194
 6123W        W13432   4.282   3.772   6.604
 6124W        W13433  16.317   2.225   6.224
 6125W        W13434   7.579   3.021   7.083
 6126W        W13435   3.535   1.266   6.819
 6127W        W13436  17.961   9.996   8.557
 6128W        W13437  15.384   2.317   9.909
 6129W        W13438  13.507   5.010   8.790
 6130W        W13439  18.542   1.276   6.378
 6131W        W13440   3.026   4.110   8.348
 6132W        W13441  10.726   8.819   7.665
 6133W        W13442  18.211   6.700   8.292
 6134W        W13443   9.640   1.067   7.370
 6135W        W13444  17.515   3.066   0.195
 6136W        W13445   4.966   0.934   8.782
 6137W        W13446   3.850   0.709   9.221
 6138W        W13447  11.688   9.199   8.420
 6139W        W13448   9.723   3.198   9.056
 6140W        W13449  11.937   9.308   7.588
 6141W        W13450   4.629   0.757   8.451
 6142W        W13451  13.837   8.750   7.079
 6143W        W13452  16.197   9.657   7.538
 6144W        W13453   7.536   7.778   0.967
 6145W        W13454  15.583   7.411   8.389
 6146W        W13455  10.899   5.996   8.344
 6147W        W13456  14.634   8.655   9.040
 6148W        W13457  18.277   8.227   9.759
 6149W        W13458   2.709   3.549   0.170
 6150W        W13459  11.485   7.801   9.636
 6151W        W13460  19.466   5.603   8.657
 6152W        W13461   1.789   3.420   8.096
 6153W        W13462  11.389   4.853   5.895
 6154W        W13463   0.133   0.511   9.062
 6155W        W13464  14.735   9.305   7.085
 6156W        W13465  12.124   0.274   9.053
 6157W        W13466   7.986   4.154   7.986
 6158W        W13467  10.898   0.099   8.407
 6159W        W13468   4.284   1.124   6.794
 6160W        W13469  11.523   1.686   7.147
 6161W        W13470  18.683   6.002   6.870
 6162W        W13471   0.621   8.545   0.250
 6163W        W13472  16.447   2.183   9.157
 6164W        W13473  17.877   8.284   6.345
 6165W        W13474  10.976   3.160   7.665
 6166W        W13475   6.638   7.669   6.718
 6167W        W13476   1.149   8.921   9.629
 6168W        W13477  17.715   4.996   8.556
 6169W        W13478   7.496   5.398   8.445
 6170W        W13479   8.519   4.186   8.873
 6171W        W13480  19.380   0.129   8.808
 6172W        W13481  18.522   3.769   0.890
 6173W        W13482   1.279   9.769   6.770
 6174W        W13483   7.749   0.637   6.445
 6175W        W13484   9.463   5.144   9.804
 6176W        W13485   0.941   4.091   9.210
 6177W        W13486   9.835   2.993   8.584
 6178W        W13487  17.102   8.947   7.125
 6179W        W13488  16.001   9.469   9.776
 6180W        W13489  12.093   8.130   8.556
 6181W        W13490  13.501   3.598   0.608
 6182W        W13491  17.829   8.646   8.221
 6183W        W13492  11.312   0.678   0.764
 6184W        W13493   4.405   5.551   7.832
 6185W        W13494   4.699   4.670   6.661
 6186W        W13495   3.071   3.272   7.116
 6187W        W13496   5.864   4.547   8.788
 6188W        W13497   3.097   3.684   0.491
 6189W        W13498  17.414   0.096   0.241
 6190W        W13499  16.722   1.718   9.761
 6191W        W13500   4.271   8.048   0.452
 6192W        W13501  11.977   3.861   9.513
 6193W        W13502   4.108   9.924   9.463
 6194W        W13503  14.555   3.640   8.823
 6195W        W13504   3.393   0.607   7.855
 6196W        W13505   2.813   4.667   7.814
 6197W        W13506  11.934   2.984   9.171
 6198W        W13507   5.614   4.746   0.136
 6199W        W13508  10.149   9.401   6.638
 6200W        W13509  17.668   3.197   6.946
 6201W        W13510   7.850   4.705   6.326
 6202W        W13511  19.866   3.738   9.742
 6203W        W13512  11.298   3.771   6.644
 6204W        W13513  11.566   2.376   9.687
 6205W        W13514   8.166   4.925   9.286
 6206W        W13515   1.392   8.486   9.741
 6207W        W13516  15.528   9.278   6.423
 6208W        W13517  15.991   2.147   9.379
 6209W        W13518  15.280   0.379   7.931
 6210W        W13519   0.208   1.907   5.826
 6211W        W13520  16.365   7.345   6.604
 6212W        W13521   9.487   6.906   7.565
 6213W        W13522  14.369   6.545   8.718
 6214W        W13523   7.624   8.616   6.215
 6215W        W13524   1.286   8.368   7.596
 6216W        W13525   7.815   9.648   7.226
 6217W        W13526  15.575   1.734   0.723
 6218W        W13527   2.628   4.104   6.453
 6219W        W13528  13.697   6.340   6.984
 6220W        W13529  11.291   2.099   9.187
 6221W        W13530  19.020   4.610   7.711
 6222W        W13531   8.536   8.985   7.411
 6223W        W13532  18.299   9.404   6.674
 6224W        W13533  19.860   5.325   6.608
 6225W        W13534   7.828   2.145   8.346
 6226W        W13535  15.072   1.971   6.969
 6227W        W13536  10.131   7.936   9.318
 6228W        W13537   6.561   6.313   6.158
 6229W        W13538   2.716   9.216   0.388
 6230W        W13539  12.142   2.488   7.152
 6231W        W13540  13.083   1.309   9.610
 6232W        W13541   4.252   5.882   6.223
 6233W        W13542   6.186   9.813   9.450
 6234W        W13543   1.633   0.024   8.095
 6235W        W13544  16.761   7.415   0.168
 6236W        W13545  17.465   9.840   7.126
 6237W        W13546   0.411   6.585   6.970
 6238W        W13547   7.029   8.428   6.603
 6239W        W13548   2.988   5.045   7.461
 6240W        W13549   2.509   1.616   7.811
 6241W        W13550   0.220   5.423   8.032
 6242W        W13551   4.803   0.723   6.150
 6243W        W13552   5.221   0.913   9.214
 6244W        W13553   5.747   1.497   9.623
 6245W        W13554  18.660   3.136   8.428
 6246W        W13555  19.479   3.798   0.059
 6247W        W13556  15.673   2.879   8.934
 6248W        W13557  12.792   5.922   9.254
 6249W        W13558  19.760   4.318   6.267
 6250W        W13559  15.332   5.862   0.709
 6251W        W13560  10.867   1.479   6.958
 6252W        W13561   9.548   2.167   8.306
 6253W        W13562  19.180   4.194   7.022
 6254W        W13563   5.404   1.529   6.224
 6255W        W13564   7.945   6.831   9.326
 6256W        W13565   9.483   0.173   7.137
 6257W        W13566   8.587   5.900   0.182
 6258W        W13567  19.681   8.168   9.356
 6259W        W13568   0.718   4.457   6.626
 6260W        W13569   1.258   5.384   9.010
 6261W        W13570  19.455   4.456   8.472
 6262W        W13571  14.178   1.755   0.758
 6263W        W13572   7.616   1.981   7.111
 6264W        W13573   3.273   3.180   8.822
 6265W        W13574   0.065   2.888   9.068
 6266W        W13575   7.837   8.233   6.498
 6267W        W13576   6.591   8.396   6.335
 6268W        W13577  13.930   3.463   9.312
 6269W        W13578  15.843   3.977   7.977
 6270W        W13579   2.778   8.062   6.816
 6271W        W13580  16.020   5.960   7.030
 6272W        W13581   2.081   3.064   7.119
 6273W        W13582  10.541   3.075   0.637
 6274W        W13583  18.491   5.404   7.493
 6275W        W13584  14.151   6.337   9.192
 6276W        W13585  16.458   0.856   9.008
 6277W        W13586  14.036   3.629   8.670
 6278W        W13587  14.376   4.389   9.205
 6279W        W13588   5.142   3.274   7.220
 6280W        W13589  13.968   5.877   0.160
 6281W        W13590   1.597   6.058   7.494
 6282W        W13591  17.727   1.334   8.456
 6283W        W13592  19.434   3.135   6.042
 6284W        W13593   4.240   4.221   8.234
 6285W        W13594   4.944   1.247   0.687
 6286W        W13595   4.304   2.483   0.565
 6287W        W13596  15.431   7.974   9.226
 6288W        W13597   6.523   1.240   0.556
 6289W        W13598  12.100   3.042   0.693
 6290W        W13599  12.772   6.369   6.225
 6291W        W13600  12.471   2.830   7.353
 6292W        W13601  19.650   9.132   9.499
 6293W        W13602  13.904   1.066   8.155
 6294W        W13603   3.539   4.192   6.529
 6295W        W13604   2.766   9.612   8.291
 6296W        W13605   8.561   3.280   8.847
 6297W        W13606  19.207   1.434   9.966
 6298W        W13607  19.054   2.972   7.453
 6299W        W13608  19.922   3.797   8.047
 6300W        W13609  15.638   4.537   7.024
 6301W        W13610  17.232   0.763   7.949
 6302W        W13611  13.424   5.448   6.700
 6303W        W13612   0.132   5.880   7.752
 6304W        W13613  11.009   1.558   6.360
 6305W        W13614   7.734   7.441   9.075
 6306W        W13615   6.423   7.813   9.548
 6307W        W13616  17.807   6.380   6.532
 6308W        W13617   9.057   2.599   7.661
 6309W        W13618   4.818   8.298   7.030
 6310W        W13619   2.499   2.945   6.277
 6311W        W13620   8.433   1.681   7.388
 6312W        W13621  16.852   2.115   9.459
 6313W        W13622  10.272   8.635   6.036
 6314W        W13623  16.575   5.576   5.924
 6315W        W13624   6.975   5.498   8.481
 6316W        W13625   0.428   0.745   0.246
 6317W        W13626  11.273   5.803   0.291
 6318W        W13627  19.372   0.323   6.301
 6319W        W13628  16.289   8.986   9.482
 6320W        W13629  10.190   8.245   9.710
 6321W        W13630   3.523   5.366   9.408
 6322W        W13631  10.771   8.315   8.922
 6323W        W13632  15.270   3.265   0.522
 6324W        W13633   3.036   4.161   7.278
 6325W        W13634  11.363   3.923   7.131
 6326W        W13635   6.787   7.818   9.190
 6327W        W13636  12.930   7.904   8.960
 6328W        W13637   7.968   6.052   6.482
 6329W        W13638   9.783   6.008   6.430
 6330W        W13639   5.134   8.532   8.395
 6331W        W13640   3.769   1.078   8.853
 6332W        W13641  14.482   5.617   0.417
 6333W        W13642  17.993   6.865   8.720
 6334W        W13643  10.156   0.360   0.402
 6335W        W13644  10.666   8.321   7.926
 6336W        W13645   3.805   6.655   8.204
 6337W        W13646   3.839   0.993   6.482
 6338W        W13647   3.999   2.352   9.754
 6339W        W13648  16.981   3.218   9.882
 6340W        W13649   5.312   1.562   0.873
 6341W        W13650  12.931   3.170   0.118
 6342W        W13651   4.068   5.297   9.438
 6343W        W13652   8.184   7.608   8.827
 6344W        W13653  13.779   6.358   7.905
 6345W        W13654   8.637   1.232   6.392
 6346W        W13655  15.648   0.012   7.911
 6347W        W13656  17.805   2.351   6.418
 6348W        W13657   6.702   8.820   6.621
 6349W        W13658  17.449   8.124   9.077
 6350W        W13659   2.340   7.925   6.575
 6351W        W13660  16.798   6.379   0.173
 6352W        W13661   4.670   9.640   0.744
 6353W        W13662  13.077   6.351   9.275
 6354W        W13663  17.301   3.417   6.265
 6355W        W13664  10.430   2.021   7.648
 6356W        W13665   9.573   0.713   6.437
 6357W        W13666   5.931   1.527   6.287
 6358W        W13667   0.720   4.330   8.817
 6359W        W13668   7.048   6.230   7.377
 6360W        W13669   5.426   9.319   9.939
 6361W        W13670  12.325   7.072   9.330
 6362W        W13671   7.562   7.895   8.147
 6363W        W13672   4.369   3.341   7.838
 6364W        W13673   7.294   9.684   6.627
 6365W        W13674  12.710   8.589   0.435
 6366W        W13675  18.476   3.769   9.521
 6367W        W13676  16.117   0.689   0.287
 6368W        W13677   7.011   7.533   7.070
 6369W        W13678   6.428   4.614   8.544
 6370W        W13679  11.903   3.110   8.041
 6371W        W13680  18.015   7.608   0.764
 6372W        W13681   1.057   5.366   0.770
 6373W        W13682  19.639   2.197   7.062
 6374W        W13683  10.086   6.433   9.398
 6375W        W13684   9.547   6.844   9.940
 6376W        W13685  15.901   7.257   8.829
 6377W        W13686   5.024   3.909   8.749
 6378W        W13687  12.946   8.906   9.449
 6379W        W13688  14.017   6.810   7.570
 6380W        W13689   6.390   2.026   8.585
 6381W        W13690  16.141   3.039   8.873
 6382W        W13691   5.765   9.733   7.294
 6383W        W13692  11.312   0.291   0.444
 6384W        W13693  10.451   9.632   0.969
 6385W        W13694  15.065   4.089   0.382
 6386W        W13695   5.204   6.979   6.997
 6387W        W13696  18.955   3.466   8.191
 6388W        W13697  18.869   9.855   9.001
 6389W        W13698   3.763   9.675   7.638
 6390W        W13699   3.892   9.634   6.800
 6391W        W13700  16.167   7.594   6.999
 6392W        W13701   3.313   1.833   9.874
 6393W        W13702   6.950   2.205   0.363
 6394W        W13703  14.145   9.247   0.659
 6395W        W13704   7.989   7.836   6.819
 6396W        W13705  16.462   6.517   7.823
 6397W        W13706   0.259   9.831   9.145
 6398W        W13707   2.805   1.746   0.133
 6399W        W13708  11.107   6.364   9.611
 6400W        W13709   0.724   1.355   6.580
 6401W        W13710   5.369   2.456   6.741
 6402W        W13711   8.635   5.581   6.122
 6403W        W13712  10.529   1.616   9.026
 6404W        W13713  15.092   0.598   6.401
 6405W        W13714   4.755   3.156   7.540
 6406W        W13715  11.205   8.091   0.490
 6407W        W13716   2.803   7.059   6.301
 6408W        W13717   6.288   8.961   6.006
 6409W        W13718   0.646   3.135   6.936
 6410W        W13719  16.101   7.580   9.174
 6411W        W13720   1.415   6.920   6.724
 6412W        W13721   4.239   4.178   9.279
 6413W        W13722   0.522   0.560   7.824
 6414W        W13723   7.521   4.474   7.206
 6415W        W13724  15.959   1.055   6.241
 6416W        W13725  15.474   3.492   8.415
 6417W        W13726   6.690   2.971   9.969
 6418W        W13727  15.583   8.127   7.905
 6419W        W13728  13.057   3.595   9.833
 6420W        W13729   9.579   7.211   7.151
 6421W        W13730  19.901   5.501   7.091
 6422W        W13731  12.957   5.020   9.593
 6423W        W13732   2.237   9.165   6.294
 6424W        W13733   3.681   5.405   7.247
 6425W        W13734  19.045   1.028   0.287
 6426W        W13735   2.883   1.671   6.553
 6427W        W13736   3.323   9.327   7.772
 6428W        W13737   1.161   5.913   7.153
 6429W        W13738  12.934   7.247   7.673
 6430W        W13739   9.651   4.125   0.285
 6431W        W13740  10.692   8.227   9.759
 6432W        W13741  19.473   7.996   7.972
 6433W        W13742  18.215   2.065   8.699
 6434W        W13743  19.811   9.064   6.214
 6435W        W13744  18.772   1.675   7.158
 6436W        W13745   8.698   9.501   7.612
 6437W        W13746   6.235   8.447   6.690
 6438W        W13747   4.460   7.696   7.834
 6439W        W13748   3.519   4.124   7.571
 6440W        W13749   7.962   6.519   7.151
 6441W        W13750  11.763   0.185   7.291
 6442W        W13751  12.343   1.460   9.604
 6443W        W13752  10.184   5.989   8.270
 6444W        W13753   2.368   1.166   7.097
 6445W        W13754   0.807   6.870   9.885
 6446W        W13755   2.502   1.663   5.840
 6447W        W13756   0.677   7.141   9.401
 6448W        W13757   0.632   7.004   6.155
 6449W        W13758   1.003   3.447   8.847
 6450W        W13759   6.866   7.345   8.055
 6451W        W13760  14.447   3.488   0.099
 6452W        W13761   8.077   7.828   6.285
 6453W        W13762   3.746   1.751   7.434
 6454W        W13763  14.995   3.553   8.150
 6455W        W13764  16.709   1.617   7.189
 6456W        W13765   0.112   2.606   7.722
 6457W        W13766  18.889   6.961   0.296
 6458W        W13767  16.899   2.039   8.408
 6459W        W13768   6.596   7.020   9.884
 6460W        W13769   1.874   1.633   9.621
 6461W        W13770   0.028   1.252   0.624
 6462W        W13771  19.129   6.515   9.576
 6463W        W13772  16.297   1.425   6.182
 6464W        W13773   1.159   0.675   8.919
 6465W        W13774   5.552   9.715   8.721
 6466W        W13775  12.743   7.578   7.327
 6467W        W13776   8.948   9.306   8.567
 6468W        W13777   3.325   3.972   9.673
 6469W        W13778  18.282   5.731   9.233
 6470W        W13779   4.670   0.240   8.331
 6471W        W13780  13.554   0.551   8.776
 6472W        W13781   2.370   6.900   0.171
 6473W        W13782  13.784   0.684   6.507
 6474W        W13783   8.055   3.296   7.135
 6475W        W13784   4.002   5.457   0.312
 6476W        W13785   7.616   5.457   0.707
 6477W        W13786  17.791   8.185   9.447
 6478W        W13787  11.845   2.639   6.770
 6479W        W13788   1.684   6.665   9.683
 6480W        W13789   7.691   1.237   7.574
 6481W        W13790   7.736   1.394   8.658
 6482W        W13791   4.695   7.103   9.243
 6483W        W13792  10.180   8.875   9.308
 6484W        W13793  13.780   9.723   6.184
 6485W        W13794   6.335   8.389   0.215
 6486W        W13795  18.118   0.813   7.400
 6487W        W13796  14.399   7.053   7.313
 6488W        W13797   6.498   5.387   6.617
 6489W        W13798  13.263   2.706   6.229
 6490W        W13799  16.786   4.051   8.367
 6491W        W13800   9.980   1.865   7.454
 6492W        W13801   2.024   4.740   6.661
 6493W        W13802   3.839   4.661   0.694
 6494W        W13803   6.353   7.851   0.733
 6495W        W13804  10.269   8.848   7.384
 6496W        W13805  11.573   4.237   9.449
 6497W        W13806  16.871   9.956   9.357
 6498W        W13807   4.792   9.890   0.275
 6499W        W13808   7.864   1.087   9.285
 6500W        W13809   6.906   0.350   9.645
 6501W        W13810   0.319   1.103   6.385
 6502W        W13811   2.394   2.666   7.373
 6503W        W13812  15.449   0.097   6.946
 6504W        W13813   6.341   3.787   0.943
 6505W        W13814   6.751   4.926   8.201
 6506W        W13815  17.158   5.178   7.199
 6507W        W13816  14.909   0.322   0.278
 6508W        W13817  19.085   9.873   6.789
 6509W        W13818   1.758   1.915   8.949
 6510W        W13819  15.985   4.920   6.983
 6511W        W13820   2.941   1.151   9.315
 6512W        W13821   5.472   2.886   0.779
 6513W        W13822  15.284   7.117   0.454
 6514W        W13823   8.936   9.955   7.663
 6515W        W13824   7.861   9.400   0.021
 6516W        W13825   2.368   9.498   7.992
 6517W        W13826   5.018   4.942   1.045
 6518W        W13827  15.087   2.493   0.846
 6519W        W13828   1.002   6.305   9.258
 6520W        W13829   6.719   8.136   8.793
 6521W        W13830   7.169   7.678   0.259
 6522W        W13831  13.346   1.639   7.534
 6523W        W13832  11.251   9.840   9.602
 6524W        W13833  16.436   7.400   0.571
 6525W        W13834   4.895   3.226   9.815
 6526W        W13835   5.492   4.313   6.982
 6527W        W13836  16.845   5.477   8.886
 6528W        W13837   9.856   2.735   7.728
 6529W        W13838  10.979   0.905   0.431
 6530W        W13839  18.090   5.604   9.681
 6531W        W13840  13.889   9.288   8.673
 6532W        W13841  18.992   1.054   9.151
 6533W        W13842   9.814   4.750   8.957
 6534W        W13843   1.631   1.244   0.392
 6535W        W13844   0.373   8.105   8.021
 6536W        W13845  11.173   0.540   7.903
 6537W        W13846   6.419   5.915   7.979
 6538W        W13847   6.808   7.161   8.536
 6539W        W13848   1.609   5.398   9.384
 6540W        W13849  19.363   7.752   7.147
 6541W        W13850   1.203   2.113   6.804
 6542W        W13851  19.209   2.615   9.984
 6543W        W13852   7.220   7.312   8.797
 6544W        W13853  10.284   4.103   8.306
 6545W        W13854  12.348   0.655   0.715
 6546W        W13855   2.792   5.869   6.804
 6547W        W13856   0.596   4.880   6.930
 6548W        W13857   1.562   5.569   7.104
 6549W        W13858   5.796   9.643   9.179
 6550W        W13859   3.891   4.451   9.008
 6551W        W13860  19.623   9.430   6.531
 6552W        W13861   4.338   0.152   7.902
 6553W        W13862  15.335   5.827   9.541
 6554W        W13863   7.126   0.081   7.490
 6555W        W13864  18.650   3.333   6.831
 6556W        W13865  14.098   9.339   9.640
 6557W        W13866  19.820   0.882   6.745
 6558W        W13867  19.633   0.361   0.159
 6559W        W13868   2.178   6.664   6.524
 6560W        W13869  17.330   4.172   8.992
 6561W        W13870   7.580   4.906   7.534
 6562W        W13871  15.326   0.837   8.756
 6563W        W13872   2.219   1.308   7.547
 6564W        W13873   4.711   9.161   9.296
 6565W        W13874   8.458   0.567   9.902
 6566W        W13875  19.472   0.871   0.027
 6567W        W13876   0.367   3.699   0.440
 6568W        W13877  16.685   4.585   0.176
 6569W        W13878   1.314   3.215   9.192
 6570W        W13879   9.929   0.129   7.412
 6571W        W13880  16.813   2.177   9.987
 6572W        W13881   8.355   2.806   7.952
 6573W        W13882   5.872   2.483   6.812
 6574W        W13883  10.791   0.576   8.269
 6575W        W13884   1.913   6.332   7.845
 6576W        W13885   3.742   2.380   8.945
 6577W        W13886   7.960   9.196   8.202
 6578W        W13887   6.052   0.184   7.326
 6579W        W13888  18.268   4.058   9.913
 6580W        W13889   2.207   9.158   8.349
 6581W        W13890  14.218   7.695   8.003
 6582W        W13891   2.715   0.026   6.259
 6583W        W13892  17.073   0.432   0.042
 6584W        W13893   5.552   9.737   8.181
 6585W        W13894  18.489   8.451   7.550
 6586W        W13895  18.468   6.899   0.020
 6587W        W13896  14.715   8.834   7.293
 6588W        W13897  10.712   7.339   9.628
 6589W        W13898  17.957   7.381   7.636
 6590W        W13899   6.291   9.233   0.209
 6591W        W13900  15.262   0.257   8.922
 6592W        W13901   6.600   9.634   0.105
 6593W        W13902   6.358   9.713   0.967
 6594W        W13903   6.131   4.342   5.868
 6595W        W13904   4.198   9.157   9.360
 6596W        W13905   2.148   4.156   6.215
 6597W        W13906  19.174   2.570   9.435
 6598W        W13907  13.699   9.340   0.886
 6599W        W13908   4.272   4.987   0.241
 6600W        W13909   9.514   4.556   9.338
 6601W        W13910  14.141   2.766   7.904
 6602W        W13911  13.309   1.380   6.345
 6603W        W13912  18.782   3.908   7.330
 6604W        W13913  17.053   2.922   6.104
 6605W        W13914  18.855   6.080   8.291
 6606W        W13915   4.682   4.176   9.019
 6607W        W13916   5.040   9.261   0.791
 6608W        W13917  19.315   3.203   7.886
 6609W        W13918  15.611   0.588   9.105
 6610W        W13919   5.499   0.593   6.777
 6611W        W13920  11.205   2.038   6.190
 6612W        W13921   0.940   6.966   7.971
 6613W        W13922  10.222   3.661   8.590
 6614W        W13923  10.687   3.237   1.118
 6615W        W13924  13.334   5.498   0.923
 6616W        W13925   1.593   7.945   7.589
 6617W        W13926   3.734   1.522   9.754
 6618W        W13927   6.329   3.309   0.081
 6619W        W13928   8.113   0.347   8.702
 6620W        W13929  10.799   9.755   0.619
 6621W        W13930   8.432   7.446   5.900
 6622W        W13931  19.657   5.179   7.982
 6623W        W13932  15.412   0.822   8.238
 6624W        W13933  10.103   0.731   0.014
 6625W        W13934  19.563   2.912   7.022
 6626W        W13935   0.737   6.638   7.394
 6627W        W13936  15.577   9.498   8.370
 6628W        W13937   0.099   4.883   6.759
 6629W        W13938   0.301   0.803   0.734
 6630W        W13939  17.381   2.742   0.994
 6631W        W13940   5.720   8.912   0.165
 6632W        W13941  17.911   0.473   8.347
 6633W        W13942   3.768   5.497   5.724
 6634W        W13943   3.090   4.307   6.257
 6635W        W13944  19.604   2.627   9.110
 6636W        W13945  17.770   8.640   7.709
 6637W        W13946  12.289   4.101   9.168
 6638W        W13947   4.543   3.712   8.726
 6639W        W13948  19.665   4.784   6.470
 6640W        W13949  18.496   5.732   8.347
 6641W        W13950  19.326   7.424   8.658
 6642W        W13951  12.843   5.617   8.852
 6643W        W13952  10.983   4.626   8.374
 6644W        W13953  10.421   9.180   7.966
 6645W        W13954   2.379   7.498   9.704
 6646W        W13955   8.126   4.285   6.512
 6647W        W13956   8.391   7.870   1.013
 6648W        W13957  13.201   4.170   8.518
 6649W        W13958  18.059   5.968   8.829
 6650W        W13959   4.132   9.471   9.760
 6651W        W13960  12.193   8.445   9.304
 6652W        W13961  16.171   0.933   7.742
 6653W        W13962  15.797   4.603   6.556
 6654W        W13963   9.149   6.506   0.627
 6655W        W13964  15.341   8.093   6.101
 6656W        W13965  10.039   1.358   7.540
 6657W        W13966  17.018   6.740   8.587
 6658W        W13967  17.512   5.937   8.514
 6659W        W13968  12.911   9.080   8.956
 6660W        W13969  13.999   7.321   0.173
 6661W        W13970  10.005   2.254   7.878
 6662W        W13971  14.114   8.912   7.490
 6663W        W13972   7.793   0.566   6.974
 6664W        W13973  11.540   4.660   6.378
 6665W        W13974  10.577   1.670   9.550
 6666W        W13975   6.377   4.493   7.546
 6667W        W13976  15.571   5.114   0.052
 6668W        W13977  17.721   2.201   9.984
 6669W        W13978  13.210   8.967   6.482
 6670W        W13979  13.943   0.249   9.733
 6671W        W13980   8.866   5.412   0.208
 6672W        W13981   8.949   2.743   8.714
 6673W        W13982  16.732   8.872   6.729
 6674W        W13983  10.443   7.215   8.804
 6675W        W13984  14.310   6.863   8.264
 6676W        W13985   3.852   5.068   6.581
 6677W        W13986   2.459   4.652   8.176
 6678W        W13987  12.674   2.060   8.580
 6679W        W13988   7.338   4.967   9.761
 6680W        W13989   6.700   5.577   8.924
 6681W        W13990   5.131   2.196   8.709
 6682W        W13991  13.346   8.759   8.702
 6683W        W13992   4.833   7.027   7.364
 6684W        W13993   5.127   0.493   8.330
 6685W        W13994  12.284   2.251   6.136
 6686W        W13995   8.043   5.773   0.654
 6687W        W13996  17.590   4.542   0.187
 6688W        W13997  17.340   7.446   7.916
 6689W        W13998   2.440   8.386   8.815
 6690W        W13999   6.513   7.949   0.032
 6691W        W14000   7.136   1.134   7.520
 6692W        W14001   0.485   7.528   6.915
 6693W        W14002  11.610   0.756   6.170
 6694W        W14003  13.882   9.665   0.486
 6695W        W14004  12.751   4.313   7.440
 6696W        W14005   4.231   2.352   8.762
 6697W        W14006  11.256   8.811   9.339
 6698W        W14007  19.849   3.023   6.600
 6699W        W14008   3.553   9.640   8.108
 6700W        W14009   3.368   1.097   8.553
 6701W        W14010   5.808   6.732   7.611
 6702W        W14011  13.222   5.581   6.082
 6703W        W14012   9.633   6.783   8.041
 6704W        W14013  13.550   0.967   6.123
 6705W        W14014  15.203   8.678   7.158
 6706W        W14015  17.952   3.989   6.846
 6707W        W14016   1.420   9.344   8.858
 6708W        W14017   6.009   3.996   0.134
 6709W        W14018   2.181   4.653   6.153
 6710W        W14019  18.151   5.332   0.093
 6711W        W14020  11.668   3.709   7.706
 6712W        W14021  16.327   4.958   7.744
 6713W        W14022   0.384   4.145   0.219
 6714W        W14023   2.373   8.887   7.247
 6715W        W14024   3.488   7.504   8.720
 6716W        W14025   6.688   1.220   7.831
 6717W        W14026  18.879   4.649   0.882
 6718W        W14027  14.667   5.429   9.123
 6719W        W14028   7.028   9.260   7.177
 6720W        W14029   3.877   0.119   6.597
 6721W        W14030   5.068   2.827   6.981
 6722W        W14031   9.003   7.603   8.767
 6723W        W14032  11.561   2.198   6.596
 6724W        W14033  12.729   6.674   7.070
 6725W        W14034  10.235   4.913   8.699
 6726W        W14035   0.307   6.874   9.142
 6727W        W14036  13.574   1.457   9.298
 6728W        W14037  14.930   7.308   9.611
 6729W        W14038   9.978   8.697   8.864
 6730W        W14039   7.704   7.109   0.927
 6731W        W14040  18.408   7.041   6.188
 6732W        W14041  14.975   4.888   7.546
 6733W        W14042  17.949   1.331   7.462
 6734W        W14043  19.536   4.159   7.933
 6735W        W14044   8.589   7.296   8.980
 6736W        W14045   8.903   0.117   0.834
 6737W        W14046   8.887   2.829   8.072
 6738W        W14047  13.826   2.591   6.130
 6739W        W14048  13.228   8.442   0.125
 6740W        W14049   4.632   9.763   6.152
 6741W        W14050  10.768   2.512   9.790
 6742W        W14051   9.423   6.735   7.063
 6743W        W14052   9.592   5.881   6.893
 6744W        W14053   8.775   8.196   9.393
 6745W        W14054  12.528   3.505   8.105
 6746W        W14055  18.258   1.591   5.934
 6747W        W14056  17.752   3.551   8.796
 6748W        W14057  11.511   1.707   8.552
 6749W        W14058  12.504   4.769   6.596
 6750W        W14059   3.794   9.318   8.408
 6751W        W14060   7.641   1.465   7.007
 6752W        W14061   5.165   1.649   0.381
 6753W        W14062  13.946   5.499   6.737
 6754W        W14063  17.266   6.444   7.250
 6755W        W14064  14.479   8.991   9.650
 6756W        W14065   6.295   3.879   6.666
 6757W        W14066   8.003   9.880   9.919
 6758W        W14067  12.587   8.863   7.600
 6759W        W14068   3.504   0.609   0.170
 6760W        W14069   9.126   9.603   8.995
 6761W        W14070   4.596   6.403   6.709
 6762W        W14071   1.872   8.125   7.996
 6763W        W14072  14.515   9.294   0.979
 6764W        W14073  11.602   4.558   7.888
 6765W        W14074   4.206  -0.000   8.375
 6766W        W14075   7.526   8.375   0.405
 6767W        W14076  15.685   9.001   8.242
 6768W        W14077   9.148   5.634   6.928
 6769W        W14078  14.432   3.267   6.478
 6770W        W14079  13.373   0.952   6.642
 6771W        W14080  15.610   9.853   0.668
 6772W        W14081  15.547   3.566   7.916
 6773W        W14082   3.605   0.176   9.915
 6774W        W14083  13.264   2.289   9.242
 6775W        W14084  17.764   5.636   9.289
 6776W        W14085   3.008   5.072   0.780
 6777W        W14086  17.328   7.981   7.338
 6778W        W14087   0.950   3.107   8.459
 6779W        W14088   1.849   3.467   8.600
 6780W        W14089  19.343   6.849   0.510
 6781W        W14090  12.221   5.159   6.861
 6782W        W14091   8.934   4.190   6.234
 6783W        W14092  13.364   8.813   9.773
 6784W        W14093   3.574   4.683   6.269
 6785W        W14094   3.777   8.217   7.066
 6786W        W14095  10.246   2.852   0.294
 6787W        W14096   1.572   7.382   0.831
 6788W        W14097  15.588   2.374   9.083
 6789W        W14098   7.655   6.841   6.674
 6790W        W14099   1.359   6.698   9.235
 6791W        W14100   3.351   0.755   6.275
 6792W        W14101  13.354   6.794   9.280
 6793W        W14102   0.156   2.798   0.442
 6794W        W14103  10.466   7.485   6.881
 6795W        W14104   8.568   1.188   7.286
 6796W        W14105  15.857   0.198   9.320
 6797W        W14106   6.402   3.218   6.580
 6798W        W14107   9.035   9.054   0.560
 6799W        W14108  12.650   9.792   8.621
 6800W        W14109   0.818   2.714   7.181
 6801W        W14110  12.826   5.723   7.484
 6802W        W14111   0.252   8.183   0.193
 6803W        W14112   2.537   8.480   7.538
 6804W        W14113  12.577   5.826   0.731
 6805W        W14114   7.091   9.587   0.265
 6806W        W14115   2.741   3.694   7.261
 6807W        W14116   0.710   9.695   7.524
 6808W        W14117   7.465   9.209   9.076
 6809W        W14118  15.649   6.455   8.136
 6810W        W14119   2.715   5.706   9.933
 6811W        W14120   2.683   4.571   6.778
 6812W        W14121  17.779   5.844   7.251
 6813W        W14122  12.781   7.579   0.742
 6814W        W14123  19.595   0.804   8.370
 6815W        W14124   3.755   9.814   8.582
 6816W        W14125  16.487   4.425   8.573
 6817W        W14126  13.689   4.973   6.272
 6818W        W14127  18.727   4.182   7.768
 6819W        W14128   3.889   7.333   0.717
 6820W        W14129  13.085   9.917   8.369
 6821W        W14130   2.532   3.008   7.741
 6822W        W14131  16.390   1.298   9.240
 6823W        W14132  14.312   6.649   9.554
 6824W        W14133  17.029   6.093   9.380
 6825W        W14134  12.964   1.226   6.765
 6826W        W14135  10.308   8.678   7.929
 6827W        W14136   0.619   7.201   8.885
 6828W        W14137   7.870   1.437   8.031
 6829W        W14138   5.533   6.417   6.250
 6830W        W14139   2.733   3.643   6.714
 6831W        W14140   0.450   5.109   0.169
 6832W        W14141  16.170   9.923   8.855
 6833W        W14142   1.456   6.059   6.409
 6834W        W14143   2.648   4.588   8.987
 6835W        W14144  10.125   5.563   7.121
 6836W        W14145  13.768   1.009   6.973
 6837W        W14146   5.371   3.141   8.817
 6838W        W14147   1.552   6.469   8.432
 6839W        W14148  18.196   1.202   9.243
 6840W        W14149  11.178   5.264   0.979
 6841W        W14150  18.618   3.398   7.334
 6842W        W14151  10.327   1.569   8.409
 6843W        W14152   7.008   9.002   0.884
 6844W        W14153   0.144   9.237   0.938
 6845W        W14154   8.137   5.942   9.251
 6846W        W14155   1.184   0.447   0.654
 6847W        W14156  12.448   9.362   8.839
 6848W        W14157   6.136   8.745   9.911
 6849W        W14158   9.448   6.964   8.974
 6850W        W14159   0.699   4.544   9.324
 6851W        W14160  10.466   4.902   7.627
 6852W        W14161  13.273   6.365   7.959
 6853W        W14162  16.225   9.944   9.803
 6854W        W14163   3.878   6.163   8.064
 6855W        W14164   0.815   6.746   9.062
 6856W        W14165  12.620   8.963   7.082
 6857W        W14166  11.924   1.398   7.899
 6858W        W14167   3.837   1.324   0.445
 6859W        W14168  17.808   2.281   7.433
 6860W        W14169  18.774   8.772   0.599
 6861W        W14170   6.446   1.161   9.638
 6862W        W14171   1.334   0.253   6.460
 6863W        W14172  17.888   5.915   0.349
 6864W        W14173   8.275   3.058   9.227
 6865W        W14174  18.298   8.564   8.018
 6866W        W14175   4.950   2.048   0.093
 6867W        W14176  19.247   7.676   7.648
 6868W        W14177   1.716   3.105   0.882
 6869W        W14178  11.503   0.799   0.302
 6870W        W14179   2.756   2.140   8.863
 6871W        W14180   8.829   6.048   0.638
 6872W        W14181  12.968   6.593   0.608
 6873W        W14182   8.239   3.399   6.353
 6874W        W14183   5.529   8.133   0.545
 6875W        W14184   5.770   7.618   0.589
 6876W        W14185  15.995   5.785   7.523
 6877W        W14186   1.885   0.421   8.287
 6878W        W14187  16.857   5.718   7.534
 6879W        W14188  13.331   1.800   8.492
 6880W        W14189  13.993   0.113   0.220
 6881W        W14190   5.648   3.980   7.357
 6882W        W14191  14.803   1.270   0.388
 6883W        W14192   7.522   7.888   7.626
 6884W        W14193   4.001   3.748   0.641
 6885W        W14194   4.970   6.728   9.429
 6886W        W14195   3.756   2.621   0.333
 6887W        W14196  19.678   7.379   0.556
 6888W        W14197  13.454   7.199   6.919
 6889W        W14198  19.215   5.076   7.748
 6890W        W14199  12.366   1.403   0.402
 6891W        W14200  17.612   3.697   6.597
 6892W        W14201   8.190   8.303   8.295
 6893W        W14202   5.066   5.378   0.377
 6894W        W14203  15.926   4.275   5.936
 6895W        W14204  14.169   0.704   6.852
 6896W        W14205   6.388   0.206   8.461
 6897W        W14206  17.045   5.265   7.679
 6898W        W14207   9.152   5.309   8.011
 6899W        W14208   3.784   0.312   8.418
 6900W        W14209   8.053   7.785   8.369
 6901W        W14210  19.742   3.099   9.404
 6902W        W14211  17.702   2.221   0.492
 6903W        W14212   6.193   7.921   7.892
 6904W        W14213  17.450   0.849   9.986
 6905W        W14214  14.487   0.804   9.187
 6906W        W14215   7.258   4.669   8.894
 6907W        W14216   1.181   4.450   6.921
 6908W        W14217  11.545   4.253   0.764
 6909W        W14218  11.874   7.588   7.001
 6910W        W14219   0.996   0.211   6.068
 6911W        W14220  16.962   2.984   9.423
 6912W        W14221   8.213   8.196   9.675
 6913W        W14222  15.420   5.453   7.875
 6914W        W14223   5.364   7.370   9.910
 6915W        W14224   0.422   5.506   8.505
 6916W        W14225  15.728   8.012   6.837
 6917W        W14226   9.726   3.499   8.617
 6918W        W14227   7.154   2.574   8.118
 6919W        W14228   1.204   5.234   6.937
 6920W        W14229   5.559   8.658   9.228
 6921W        W14230  10.281   3.362   0.261
 6922W        W14231   3.065   9.286   7.310
 6923W        W14232   3.743   2.156   7.020
 6924W        W14233   5.846   7.459   6.932
 6925W        W14234  16.905   6.696   6.508
 6926W        W14235   0.311   4.394   7.478
 6927W        W14236   7.147   5.234   0.692
 6928W        W14237  19.067   8.676   8.612
 6929W        W14238  18.693   6.568   8.480
 6930W        W14239   2.131   8.144   7.549
 6931W        W14240   8.871   6.056   9.762
 6932W        W14241  16.512   7.192   9.800
 6933W        W14242   5.116   6.914   9.868
 6934W        W14243  11.180   7.273   6.702
 6935W        W14244  16.040   2.135   8.361
 6936W        W14245   6.714   2.548   6.795
 6937W        W14246   3.962   1.436   7.054
 6938W        W14247   1.939   8.714   8.348
 6939W        W14248   6.309   2.454   8.313
 6940W        W14249  14.308   3.193   8.762
 6941W        W14250  13.918   9.767   8.938
 6942W        W14251   9.910   0.263   6.388
 6943W        W14252   1.100   1.241   0.566
 6944W        W14253   1.068   0.220   6.901
 6945W        W14254  11.975   5.909   6.168
 6946W        W14255  18.471   5.112   9.684
 6947W        W14256   1.756   3.782   7.740
 6948W        W14257  13.268   3.077   7.910
 6949W        W14258   3.778   0.482   6.246
 6950W        W14259  13.478   0.204   0.800
 6951W        W14260   1.223   1.893   8.960
 6952W        W14261   8.403   9.139   9.239
 6953W        W14262   8.061   7.030   0.151
 6954W        W14263   0.477   3.741   6.223
 6955W        W14264   9.408   3.173   0.157
 6956W        W14265   6.612   3.027   0.478
 6957W        W14266   0.722   6.579   6.572
 6958W        W14267   9.815   2.633   8.209
 6959W        W14268   1.091   1.189   6.884
 6960W        W14269   9.975   2.263   0.924
 6961W        W14270   8.822   2.203   7.446
 6962W        W14271   6.081   0.535   1.037
 6963W        W14272  15.894   2.471   0.560
 6964W        W14273  13.620   6.336   9.242
 6965W        W14274  19.960   8.606   6.332
 6966W        W14275  18.827   7.407   9.516
 6967W        W14276   8.204   5.575   8.902
 6968W        W14277   2.142   4.541   9.160
 6969W        W14278  10.974   3.799   0.528
 6970W        W14279  15.249   2.811   6.388
 6971W        W14280   2.159   4.115   1.008
 6972W        W14281  13.547   7.210   7.933
 6973W        W14282  15.424   5.716   8.719
 6974W        W14283   2.241   8.482   7.967
 6975W        W14284   5.778   5.424   0.750
 6976W        W14285  13.094   0.385   8.620
 6977W        W14286  12.372   3.068   7.820
 6978W        W14287   7.429   9.718   9.266
 6979W        W14288   2.916   0.745   7.946
 6980W        W14289   0.613   1.667   0.837
 6981W        W14290  17.831   6.539   7.924
 6982W        W14291  17.599   9.775   0.613
 6983W        W14292  19.171   3.504   9.126
 6984W        W14293  11.604   6.897   0.997
 6985W        W14294  11.338   5.699   9.210
 6986W        W14295   2.899   7.467   9.689
 6987W        W14296   0.730   0.695   9.839
 6988W        W14297  14.094   6.008   9.633
 6989W        W14298   2.519   9.993   7.153
 6990W        W14299  11.700   1.125   9.873
 6991W        W14300  10.835   9.603   9.352
 6992W        W14301  15.174   1.603   0.458
 6993W        W14302   7.405   0.371   9.874
 6994W        W14303  14.621   1.882   6.237
 6995W        W14304  19.150   6.825   8.244
 6996W        W14305   5.538   9.232   8.052
 6997W        W14306  13.434   9.243   7.872
 6998W        W14307   1.317   4.014   0.172
 6999W        W14308   7.120   5.735   0.692
 7000W        W14309  11.434   9.456   7.126
 7001W        W14310   3.968   0.383   0.228
 7002W        W14311  19.651   6.501   0.726
 7003W        W14312  15.402   5.808   7.488
 7004W        W14313   9.800   9.955   0.595
 7005W        W14314   2.220   9.207   9.191
 7006W        W14315  11.586   9.435   8.862
 7007W        W14316  14.550   0.354   6.900
 7008W        W14317  15.847   9.209   9.244
 7009W        W14318   7.241   0.882   9.876
 7010W        W14319  12.634   1.039   9.512
 7011W        W14320   0.563   2.548   7.959
 7012W        W14321   4.431   0.231   6.486
 7013W        W14322  15.007   9.381   9.698
 7014W        W14323  13.948   0.649   8.437
 7015W        W14324  19.786   9.557   8.984
 7016W        W14325   9.655   6.280   7.182
 7017W        W14326  16.582   4.386   9.659
 7018W        W14327  17.471   3.475   8.356
 7019W        W14328   2.536   4.251   8.517
 7020W        W14329  16.077   0.880   9.818
 7021W        W14330   1.058   3.678   9.880
 7022W        W14331   4.629   1.051   7.718
 7023W        W14332  12.762   6.428   7.993
 7024W        W14333  13.083   7.232   9.286
 7025W        W14334  11.889   5.217   0.602
 7026W        W14335  10.377   2.937   6.590
 7027W        W14336  14.745   3.250   0.490
 7028W        W14337  15.011   3.289   6.329
 7029W        W14338  13.201   5.061   6.963
 7030W        W14339  17.721   3.317   7.456
 7031W        W14340   5.920   1.946   7.692
 7032W        W14341  13.489   1.878   8.990
 7033W        W14342  14.380   6.332   6.753
 7034W        W14343   4.098   6.882   7.810
 7035W        W14344  13.569   4.370   0.716
 7036W        W14345  12.484   4.730   6.082
 7037W        W14346   7.247   1.847   6.801
 7038W        W14347   9.894   5.555   6.673
 7039W        W14348  14.132   2.178   8.286
 7040W        W14349   2.114   4.254   8.218
 7041W        W14350  19.174   7.277   7.084
 7042W        W14351   4.594   3.080   9.418
 7043W        W14352   9.277   5.898   6.490
 7044W        W14353   7.847   7.324   0.488
 7045W        W14354   7.498   0.995   8.921
 7046W        W14355   3.557   6.984   0.583
 7047W        W14356   1.853   7.820   8.441
 7048W        W14357  12.973   6.351   6.699
 7049W        W14358   5.579   9.249   8.549
 7050W        W14359  12.054   0.199   9.870
 7051W        W14360  15.976   6.872   1.094
 7052W        W14361  13.302   6.012   8.360
 7053W        W14362  14.604   6.406   8.269
 7054W        W14363  18.789   4.433   7.289
 7055W        W14364  17.291   6.852   9.562
 7056W        W14365  16.587   0.157   8.262
 7057W        W14366  13.816   8.899   9.475
 7058W        W14367   5.301   5.556   0.884
 7059W        W14368  16.313   8.344   9.773
 7060W        W14369  15.432   8.466   9.359
 7061W        W14370  18.637   3.669   7.795
 7062W        W14371   6.012   1.864   9.325
 7063W        W14372  13.789   1.466   6.071
 7064W        W14373   7.954   0.052   6.939
 7065W        W14374  10.207   1.351   9.379
 7066W        W14375  12.292   6.218   8.731
 7067W        W14376   1.186   0.825   8.027
 7068W        W14377   8.397   8.598   9.965
 7069W        W14378   7.705   4.599   8.011
 7070W        W14379   6.914   3.234   6.575
 7071W        W14380   2.188   9.724   9.890
 7072W        W14381   7.004   2.771   7.279
 7073W        W14382   1.851   3.596   7.262
 7074W        W14383  17.247   2.874   7.012
 7075W        W14384   5.649   1.560   8.410
 7076W        W14385  13.485   6.229   7.468
 7077W        W14386  14.402   5.900   9.147
 7078W        W14387   5.856   6.610   0.338
 7079W        W14388   3.608   1.250   7.352
 7080W        W14389  11.662   5.986   0.971
 7081W        W14390   3.828   8.897   9.104
 7082W        W14391  14.695   9.430   6.544
 7083W        W14392  12.189   1.015   8.171
 7084W        W14393  18.493   0.764   6.993
 7085W        W14394   8.902   9.147   9.079
 7086W        W14395   1.470   3.634   8.938
 7087W        W14396   0.082   7.596   9.826
 7088W        W14397  11.395   5.642   7.361
 7089W        W14398   4.629   8.775   9.601
 7090W        W14399   4.821   4.060   7.931
 7091W        W14400  17.064   7.925   6.903
 7092W        W14401   5.312   5.209   6.995
 7093W        W14402  14.029   2.036   0.293
 7094W        W14403  12.512   0.907   0.289
 7095W        W14404  10.464   5.541   8.312
 7096W        W14405   5.746   5.294   7.295
 7097W        W14406  16.522   7.614   6.189
 7098W        W14407  13.476   2.253   6.385
 7099W        W14408   6.015   7.901   9.921
 7100W        W14409  17.555   1.107   7.249
 7101W        W14410  11.193   9.031   6.903
 7102W        W14411   6.152   8.803   0.432
 7103W        W14412  12.019   3.580   8.199
 7104W        W14413  16.644   8.806   0.210
 7105W        W14414  13.995   1.119   0.982
 7106W        W14415  14.897   7.160   6.848
 7107W        W14416  15.912   7.295   0.673
 7108W        W14417   4.802   7.418   0.742
 7109W        W14418   3.374   3.179   9.700
 7110W        W14419  15.748   6.391   9.013
 7111W        W14420  15.743   7.675   9.867
 7112W        W14421  13.804   1.207   6.505
 7113W        W14422   5.121   2.787   7.484
 7114W        W14423   9.496   3.676   6.241
 7115W        W14424   2.780   1.630   9.181
 7116W        W14425   7.244   9.255   7.770
 7117W        W14426  14.311   2.312   6.215
 7118W        W14427   8.119   8.677   6.585
 7119W        W14428  17.865   7.762   9.099
 7120W        W14429   3.892   7.633   8.409
 7121W        W14430  16.022   6.859   0.210
 7122W        W14431  12.323   7.394   8.938
 7123W        W14432  12.785   2.985   8.119
 7124W        W14433  10.850   6.922   6.547
 7125W        W14434   6.804   9.679   6.945
 7126W        W14435  11.164   8.360   8.087
 7127W        W14436  12.143   1.007   7.634
 7128W        W14437  15.815   7.744   0.399
 7129W        W14438  15.809   3.929   8.490
 7130W        W14439  17.723   7.315   6.692
 7131W        W14440   0.065   6.439   6.603
 7132W        W14441   5.659   6.234   7.641
 7133W        W14442  15.696   3.011   8.428
 7134W        W14443  18.320   0.760   8.458
 7135W        W14444  16.199   5.527   0.641
 7136W        W14445   6.434   2.277   6.420
 7137W        W14446  18.471   3.284   0.685
 7138W        W14447  15.429   4.921   7.311
 7139W        W14448  12.295   1.604   0.866
 7140W        W14449   0.896   5.297   0.292
 7141W        W14450   5.079   7.549   0.321
 7142W        W14451  17.837   5.410   0.465
 7143W        W14452  19.897   9.349   7.779
 7144W        W14453   3.258   4.974   0.350
 7145W        W14454   6.648   8.052   7.647
 7146W        W14455   2.551   3.219   7.241
 7147W        W14456   3.066   9.295   6.764
 7148W        W14457   4.212   0.353   9.205
 7149W        W14458   6.166   0.998   0.833
 7150W        W14459  14.627   7.108   6.405
 7151W        W14460   7.518   2.660   9.795
 7152W        W14461   5.776   7.695   8.660
 7153W        W14462  16.930   2.573   9.704
 7154W        W14463   9.974   4.091   7.901
 7155W        W14464   5.415   4.638   6.190
 7156W        W14465   8.658   0.554   8.012
 7157W        W14466   2.632   6.890   8.022
 7158W        W14467   2.062   3.262   6.272
 7159W        W14468  15.726   2.726   6.181
 7160W        W14469   0.103   1.690   0.903
 7161W        W14470   9.069   3.325   8.027
 7162W        W14471   6.467   9.239   8.792
 7163W        W14472   8.527   2.559   6.944
 7164W        W14473   5.138   4.087   7.338
 7165W        W14474   0.046   1.876   9.985
 7166W        W14475   0.335   8.227   6.151
 7167W        W14476  16.651   0.432   9.256
 7168W        W14477  19.033   0.186   9.379
 7169W        W14478   0.047   6.482   9.969
 7170W        W14479   1.172   5.718   0.419
 7171W        W14480  18.318   4.640   7.422
 7172W        W14481  16.278   1.734   9.487
 7173W        W14482  12.915   7.962   9.470
 7174W        W14483   8.240   6.940   0.627
 7175W        W14484   4.764   5.796   9.241
 7176W        W14485  10.499   0.389   9.127
 7177W        W14486  19.105   2.973   8.276
 7178W        W14487  14.986   0.123   6.218
 7179W        W14488   5.088   0.517   7.746
 7180W        W14489   9.431   0.240   8.444
 7181W        W14490  14.396   8.021   6.101
 7182W        W14491  15.186   9.606   0.655
 7183W        W14492  11.589   9.923   6.289
 7184W        W14493   1.243   0.684   6.176
 7185W        W14494  16.315   0.200   0.292
 7186W        W14495  19.985   2.429   9.381
 7187W        W14496   3.805   9.245   7.907
 7188W        W14497  13.170   7.454   0.382
 7189W        W14498  18.815   7.217   7.418
 7190W        W14499   3.152   6.094   5.996
 7191W        W14500  10.033   6.034   9.093
 7192W        W14501   4.618   4.597   0.284
 7193W        W14502  16.914   2.740   6.626
 7194W        W14503  12.584   4.453   9.500
 7195W        W14504   7.052   9.515   8.985
 7196W        W14505  11.383   8.789   8.354
 7197W        W14506   6.509   6.053   8.987
 7198W        W14507   7.510   8.173   8.570
 7199W        W14508  14.608   4.133   6.556
 7200W        W14509   1.868   7.849   9.294
 7201W        W14510   7.068   6.007   9.690
 7202W        W14511   2.171   8.156   7.019
 7203W        W14512  11.635   9.639   9.356
 7204W        W14513  15.344   1.125   0.329
 7205W        W14514  17.830   9.194   6.835
 7206W        W14515  14.740   6.504   0.635
 7207W        W14516  17.981   4.719   9.353
 7208W        W14517  15.793   5.375   8.805
 7209W        W14518  18.886   9.961   6.304
 7210W        W14519   3.708   7.275   9.314
 7211W        W14520   4.616   9.296   7.878
 7212W        W14521   2.926   5.001   6.958
 7213W        W14522  17.750   1.246   9.502
 7214W        W14523  11.171   6.178   9.065
 7215W        W14524   6.614   5.637   0.778
 7216W        W14525   2.559   8.467   7.021
 7217W        W14526  19.905   0.829   0.322
 7218W        W14527  18.776   7.976   8.495
 7219W        W14528   4.794   8.757   0.821
 7220W        W14529   1.737   1.237   7.765
 7221W        W14530  17.826   0.046   8.065
 7222W        W14531   4.174   6.439   8.964
 7223W        W14532   0.897   7.098   6.593
 7224W        W14533   4.732   6.152   7.563
 7225W        W14534   5.287   6.290   8.313
 7226W        W14535  14.701   1.266   6.416
 7227W        W14536  17.901   1.868   6.692
 7228W        W14537  11.540   7.789   9.131
 7229W        W14538   4.602   5.646   7.370
 7230W        W14539   5.141   2.741   8.011
 7231W        W14540   7.602   2.561   9.284
 7232W        W14541  10.783   2.060   9.014
 7233W        W14542  15.648   5.358   7.440
 7234W        W14543  11.996   0.829   6.489
 7235W        W14544  13.957   3.584   0.341
 7236W        W14545   1.121   9.419   6.351
 7237W        W14546   5.449   2.449   6.205
 7238W        W14547  11.618   9.734   7.505
 7239W        W14548   4.532   8.307   0.860
 7240W        W14549  10.509   1.699   0.050
 7241W        W14550  14.432   0.353   8.433
 7242W        W14551   1.615   9.269   0.812
 7243W        W14552  12.660   9.078   0.320
 7244W        W14553  19.521   2.673   8.212
 7245W        W14554   5.082   9.954   6.219
 7246W        W14555  18.088   6.379   7.422
 7247W        W14556  10.900   7.719   6.744
 7248W        W14557  19.926   6.608   5.748
 7249W        W14558   9.272   4.987   8.418
 7250W        W14559  16.717   4.389   9.134
 7251W        W14560   4.109   3.600   0.131
 7252W        W14561   9.326   4.645   7.063
 7253W        W14562  16.819   7.979   7.363
 7254W        W14563  14.772   9.848   0.513
 7255W        W14564  18.920   1.210   6.950
 7256W        W14565   1.862   9.389   0.204
 7257W        W14566   7.183   0.949   0.385
 7258W        W14567  17.251   6.910   7.023
 7259W        W14568   5.864   4.479   0.881
 7260W        W14569  11.001   9.672   8.130
 7261W        W14570  18.554   3.497   9.964
 7262W        W14571  16.754   3.516   0.570
 7263W        W14572  18.172   3.114   6.754
 7264W        W14573  19.642   7.237   6.887
 7265W        W14574   5.454   0.756   7.970
 7266W        W14575  13.404   9.661   9.715
 7267W        W14576  10.883   7.383   7.169
 7268W        W14577  16.554   2.687   7.867
 7269W        W14578  12.773   1.829   0.923
 7270W        W14579  19.235   7.327   0.299
 7271W        W14580  13.019   9.770   6.833
 7272W        W14581   6.748   7.627   0.527
 7273W        W14582   8.012   1.321   9.738
 7274W        W14583  16.078   0.279   7.989
 7275W        W14584   5.350   9.162   0.410
 7276W        W14585  15.951   3.129   6.413
 7277W        W14586  18.621   2.199   0.019
 7278W        W14587  16.069   5.652   6.603
 7279W        W14588  11.800   9.959   8.339
 7280W        W14589  12.548   6.874   0.656
 7281W        W14590   5.095   3.692   9.719
 7282W        W14591   1.570   7.480   0.214
 7283W        W14592   7.599   5.467   9.772
 7284W        W14593  13.183   5.154   8.200
 7285W        W14594  14.389   5.986   7.398
 7286W        W14595   2.000   5.510   9.711
 7287W        W14596   2.235   2.297   0.831
 7288W        W14597   1.865   1.163   9.336
 7289W        W14598   4.671   1.126   5.852
 7290W        W14599  11.482   0.397   5.820
 7291W        W14600   3.474   0.157   7.623
 7292W        W14601  17.078   5.937   8.788
 7293W        W14602  13.500   1.392   8.231
 7294W        W14603   0.880   6.323   8.749
 7295W        W14604   7.441   8.909   9.611
 7296W        W14605  12.514   4.771   7.105
 7297W        W14606  18.828   0.914   6.115
 7298W        W14607  17.378   2.095   7.651
 7299W        W14608  17.341   1.669   7.931
 7300W        W14609  19.238   9.589   0.569
 7301W        W14610  13.510   0.706   8.085
 7302W        W14611   2.098   7.662   8.012
 7303W        W14612   0.948   4.963   9.154
 7304W        W14613  16.553   7.602   9.503
 7305W        W14614   8.848   4.204   0.956
 7306W        W14615   9.403   6.018   9.856
 7307W        W14616  18.550   5.652   6.514
 7308W        W14617  12.264   4.684   1.370
 7309W        W14618   5.678   8.861   7.150
 7310W        W14619  14.240   2.469   9.284
 7311W        W14620   9.370   3.037   0.650
 7312W        W14621   2.286   2.501   9.211
 7313W        W14622  15.085   7.425   7.450
 7314W        W14623  13.892   7.504   9.692
 7315W        W14624  16.285   4.543   0.939
 7316W        W14625  18.402   4.894   0.147
 7317W        W14626  17.611   2.272   0.980
 7318W        W14627  18.252   7.833   6.010
 7319W        W14628  13.946   3.603   9.826
 7320W        W14629  12.340   2.300   9.279
 7321W        W14630   2.837   5.033   9.190
 7322W        W14631   5.696   7.372   6.383
 7323W        W14632  11.206   6.278   0.119
 7324W        W14633  12.608   3.598   9.587
 7325W        W14634   9.250   7.311   6.773
 7326W        W14635   1.248   4.965   8.719
 7327W        W14636  10.481   2.714   7.069
 7328W        W14637   0.796   5.310   8.791
 7329W        W14638  13.864   9.341   7.616
 7330W        W14639   7.513   0.677   0.688
 7331W        W14640   5.220   7.814   0.754
 7332W        W14641   3.414   1.152   9.623
 7333W        W14642   1.408   8.990   6.386
 7334W        W14643  11.680   6.055   8.970
 7335W        W14644  13.213   4.073   9.029
 7336W        W14645   7.639   9.637   8.811
 7337W        W14646   3.402   6.744   8.496
 7338W        W14647  13.344   9.368   6.795
 7339W        W14648  16.182   5.796   8.058
 7340W        W14649   0.727   5.309   7.160
 7341W        W14650   3.899   3.276   7.555
 7342W        W14651   5.570   5.612   9.375
 7343W        W14652   9.206   4.694   9.748
 7344W        W14653   7.134   2.311   7.080
 7345W        W14654   8.237   4.011   9.274
 7346W        W14655  16.235   3.438   9.876
 7347W        W14656   5.070   1.992   6.836
 7348W        W14657  18.776   8.928   8.264
 7349W        W14658   1.212   9.234   0.377
 7350W        W14659  14.079   7.346   8.373
 7351W        W14660   8.951   2.219   8.327
 7352W        W14661   0.951   0.247   8.633
 7353W        W14662  10.854   5.700   7.586
 7354W        W14663   8.240   9.470   9.660
 7355W        W14664  19.056   9.517   0.065
 7356W        W14665   9.159   1.770   0.400
 7357W        W14666   2.703   0.472   7.096
 7358W        W14667  13.456   0.127   9.501
 7359W        W14668  12.940   8.553   8.221
 7360W        W14669  18.468   0.381   7.786
 7361W        W14670   2.433   5.586   7.925
 7362W        W14671  10.525   4.313   6.292
 7363W        W14672  18.381   3.007   9.170
 7364W        W14673   7.726   5.520   7.163
 7365W        W14674   5.876   3.361   6.552
 7366W        W14675   6.760   2.206   8.268
 7367W        W14676   1.238   8.411   7.099
 7368W        W14677  10.111   9.126   0.587
 7369W        W14678   8.534   7.855   7.638
 7370W        W14679   1.398   0.875   7.545
 7371W        W14680   5.775   7.818   8.168
 7372W        W14681   9.660   0.664   0.302
 7373W        W14682   2.942   7.585   0.536
 7374W        W14683   2.473   0.793   6.771
 7375W        W14684  16.625   6.118   5.906
 7376W        W14685   0.978   1.152   7.367
 7377W        W14686   4.419   8.337   8.744
 7378W        W14687   1.231   6.713   8.746
 7379W        W14688  13.610   0.260   6.794
 7380W        W14689   9.033   8.742   8.779
 7381W        W14690  15.575   7.974   0.881
 7382W        W14691  14.607   2.049   7.174
 7383W        W14692  15.298   7.084   7.148
 7384W        W14693   6.972   5.141   9.042
 7385W        W14694  13.034   0.233   1.049
 7386W        W14695  15.226   0.633   1.056
 7387W        W14696  18.653   8.363   0.979
 7388W        W14697   9.004   9.875   8.567
 7389W        W14698  14.826   2.895   6.059
 7390W        W14699   0.239   4.147   9.733
 7391W        W14700  14.453   2.727   8.904
 7392W        W14701  17.312   8.503   7.508
 7393W        W14702  19.774   5.903   7.382
 7394W        W14703  13.971   0.247   9.225
 7395W        W14704   4.284   7.159   0.468
 7396W        W14705  14.884   1.653   9.595
 7397W        W14706  18.360   5.826   0.086
 7398W        W14707  16.308   3.706   0.365
 7399W        W14708   9.862   3.063   0.533
 7400W        W14709   2.266   6.547   8.857
 7401W        W14710  18.988   2.636   6.378
 7402W        W14711  15.084   8.555   6.281
 7403W        W14712  10.506   3.018   7.495
 7404W        W14713   5.282   6.488   9.103
 7405W        W14714  14.139   5.345   8.355
 7406W        W14715  14.346   5.965   8.304
 7407W        W14716   8.970   4.874   7.408
 7408W        W14717   4.042   7.775   7.004
 7409W        W14718   9.195   7.132   6.303
 7410W        W14719   2.054   3.675   9.765
 7411W        W14720  12.251   4.340   7.307
 7412W        W14721  10.497   2.378   6.661
 7413W        W14722   2.702   7.523   6.638
 7414W        W14723  11.430   3.275   7.874
 7415W        W14724   7.457   6.947   9.086
 7416W        W14725  16.605   6.719   8.279
 7417W        W14726   9.114   2.664   0.081
 7418W        W14727  13.181   8.361   9.627
 7419W        W14728   9.616   2.588   9.332
 7420W        W14729  11.881   0.512   6.891
 7421W        W14730   0.149   7.905   8.865
 7422W        W14731  10.302   6.843   8.071
 7423W        W14732  11.666   0.033   6.796
 7424W        W14733  13.210   5.129   6.326
 7425W        W14734  14.826   6.874   8.226
 7426W        W14735  18.226   9.930   7.764
 7427W        W14736   3.299   5.820   9.320
 7428W        W14737   3.236   7.588   6.596
 7429W        W14738   1.948   8.775   9.234
 7430W        W14739  19.073   0.914   7.728
 7431W        W14740   8.979   1.636   9.485
 7432W        W14741   7.080   7.502   6.547
 7433W        W14742   3.269   8.014   0.422
 7434W        W14743  11.834   6.132   8.438
 7435W        W14744   5.330   9.784   9.259
 7436W        W14745  15.390   2.832   9.883
 7437W        W14746   4.464   8.801   6.192
 7438W        W14747  18.970   3.952   6.421
 7439W        W14748   8.113   0.344   7.328
 7440W        W14749  10.364   3.726   7.035
 7441W        W14750  16.373   1.809   5.823
 7442W        W14751  19.613   7.338   6.363
 7443W        W14752   1.370   7.194   6.306
 7444W        W14753  13.827   8.793   8.456
 7445W        W14754  13.856   6.517   8.802
 7446W        W14755  13.073   3.867   7.498
 7447W        W14756   5.664   3.983   8.576
 7448W        W14757  12.329   0.481   6.629
 7449W        W14758  16.439   3.080   6.206
 7450W        W14759   3.110   3.605   9.019
 7451W        W14760  10.975   0.211   0.831
 7452W        W14761  16.148   9.152   7.371
 7453W        W14762   3.042   0.823   0.250
 7454W        W14763   6.172   7.294   0.678
 7455W        W14764   4.260   2.873   8.068
 7456W        W14765  18.641   2.198   8.429
 7457W        W14766   5.890   3.691   9.263
 7458W        W14767  12.311   7.543   0.168
 7459W        W14768   2.755   4.414   9.859
 7460W        W14769   6.388   1.616   7.722
 7461W        W14770   9.493   2.828   9.767
 7462W        W14771  16.835   1.272   0.029
 7463W        W14772   9.564   3.170   7.095
 7464W        W14773  15.078   5.007   0.461
 7465W        W14774  15.349   7.658   0.178
 7466W        W14775  18.997   6.066   0.469
 7467W        W14776  12.288   1.758   6.633
 7468W        W14777  12.061   7.009   8.708
 7469W        W14778  16.654   8.045   6.433
 7470W        W14779  16.554   3.587   8.411
 7471W        W14780   8.102   1.144   8.394
 7472W        W14781   5.542   2.930   6.857
 7473W        W14782  10.977   0.368   8.835
 7474W        W14783  12.462   2.692   0.196
 7475W        W14784  15.972   6.378   7.372
 7476W        W14785   6.483   8.242   8.339
 7477W        W14786  14.042   2.628   7.424
 7478W        W14787   3.059   3.539   9.521
 7479W        W14788   9.054   0.907   6.414
 7480W        W14789  10.061   1.049   7.035
 7481W        W14790   4.087   7.996   9.962
 7482W        W14791   8.732   0.705   7.184
 7483W        W14792  15.880   6.030   8.403
 7484W        W14793  14.848   0.266   9.217
 7485W        W14794   7.318   8.441   8.181
 7486W        W14795  13.193   3.991   7.983
 7487W        W14796  17.769   8.684   6.692
 7488W        W14797   5.810   8.118   8.916
 7489W        W14798  16.531   2.186   7.606
 7490W        W14799  10.015   0.048   9.716
 7491W        W14800   4.975   2.794   0.687
 7492W        W14801   1.383   8.483   8.843
 7493W        W14802   8.086   2.620   6.434
 7494W        W14803  19.252   7.759   0.687
 7495W        W14804  16.432   2.644   7.370
 7496W        W14805   8.203   5.631   7.929
 7497W        W14806   9.790   4.482   0.719
 7498W        W14807  13.923   4.570   9.382
 7499W        W14808  17.771   1.785   8.194
 7500W        W14809  12.456   8.457   8.409
 7501W        W14810  14.282   2.698   6.557
 7502W        W14811  12.637   9.792   8.105
 7503W        W14812  11.488   1.646   9.074
 7504W        W14813   8.350   4.092   6.947
 7505W        W14814   0.132   1.640   7.135
 7506W        W14815   0.113   5.952   9.155
 7507W        W14816   7.644   8.855   6.663
 7508W        W14817  15.129   6.466   8.210
 7509W        W14818  11.446   8.269   9.441
 7510W        W14819   0.103   3.228   6.968
 7511W        W14820   4.559   1.256   8.752
 7512W        W14821   6.570   9.250   6.348
 7513W        W14822   4.849   4.620   9.839
 7514W        W14823   1.264   3.592   7.952
 7515W        W14824  14.390   2.528   9.779
 7516W        W14825  13.480   3.943   0.972
 7517W        W14826  12.348   8.487   6.357
 7518W        W14827  18.051   6.076   7.872
 7519W        W14828  10.264   6.359   7.837
 7520W        W14829   6.859   9.474   8.529
 7521W        W14830  18.249   1.444   0.783
 7522W        W14831   5.674   4.986   8.614
 7523W        W14832   0.360   4.614   9.969
 7524W        W14833  14.996   8.016   0.296
 7525W        W14834   8.420   3.644   7.205
 7526W        W14835  14.596   6.761   6.928
 7527W        W14836   4.562   7.822   6.999
 7528W        W14837  10.463   3.695   9.040
 7529W        W14838  16.512   3.033   9.718
 7530W        W14839  19.764   3.223   9.908
 7531W        W14840  19.206   4.952   7.226
 7532W        W14841  13.155   6.976   9.724
 7533W        W14842   2.628   7.320   9.277
 7534W        W14843   5.192   9.733   0.992
 7535W        W14844  16.521   2.676   8.900
 7536W        W14845   6.765   3.484   0.661
 7537W        W14846   9.559   0.432   7.991
 7538W        W14847  15.488   8.385   8.341
 7539W        W14848   1.728   4.042   5.979
 7540W        W14849   0.808   4.526   0.930
 7541W        W14850   9.913   8.680   9.708
 7542W        W14851   7.207   9.969   6.210
 7543W        W14852  19.849   0.433   7.441
 7544W        W14853   2.298   5.099   6.341
 7545W        W14854  19.743   1.758   6.188
 7546W        W14855   9.335   6.320   6.784
 7547W        W14856  15.793   6.740   7.727
 7548W        W14857   4.215   2.667   0.102
 7549W        W14858   3.340   8.916   0.871
 7550W        W14859   7.521   7.799   7.085
 7551W        W14860   7.452   4.096   0.189
 7552W        W14861   1.299   7.859   8.444
 7553W        W14862  18.648   6.932   8.107
 7554W        W14863  10.876   2.260   7.594
 7555W        W14864   1.715   6.530   6.817
 7556W        W14865  14.591   8.531   9.843
 7557W        W14866   7.257   2.991   9.263
 7558W        W14867   6.972   7.225   6.123
 7559W        W14868  14.294   7.141   0.626
 7560W        W14869   5.571   0.380   9.974
 7561W        W14870  12.515   5.239   8.788
 7562W        W14871   9.621   0.722   8.406
 7563W        W14872   8.888   3.892   0.538
 7564W        W14873   3.540   4.542   0.244
 7565W        W14874   6.165   0.692   7.510
 7566W        W14875  18.656   2.070   6.855
 7567W        W14876  12.337   9.604   9.978
 7568W        W14877  11.130   5.038   6.303
 7569W        W14878  13.505   9.709   8.131
 7570W        W14879   7.618   7.831   0.444
 7571W        W14880  11.669   3.512   7.211
 7572W        W14881   5.916   6.019   8.198
 7573W        W14882  19.333   0.833   6.260
 7574W        W14883  18.471   9.897   8.613
 7575W        W14884   3.045   1.511   0.801
 7576W        W14885   3.031   4.153   7.803
 7577W        W14886  15.817   9.152   8.718
 7578W        W14887   9.531   1.571   7.490
 7579W        W14888  12.692   7.233   0.308
 7580W        W14889  16.036   9.105   0.812
 7581W        W14890   0.808   3.311   7.993
 7582W        W14891   9.658   4.283   6.894
 7583W        W14892  17.773   1.317   6.016
 7584W        W14893  13.558   1.431   8.751
 7585W        W14894  15.047   9.477   0.188
 7586W        W14895   9.301   7.639   6.342
 7587W        W14896  18.323   7.841   0.141
 7588W        W14897   4.667   2.770   9.886
 7589W        W14898  15.285   6.337   9.968
 7590W        W14899  19.679   5.188   8.861
 7591W        W14900  17.340   0.790   6.928
 7592W        W14901   7.331   8.767   8.616
 7593W        W14902  19.420   9.281   7.523
 7594W        W14903  17.564   8.595   9.677
 7595W        W14904   0.388   5.429   7.546
 7596W        W14905  17.367   6.485   8.258
 7597W        W14906  19.078   2.144   6.552
 7598W        W14907  12.551   0.079   9.910
 7599W        W14908   6.257   2.722   6.581
 7600W        W14909   7.135   6.436   8.879
 7601W        W14910   3.080   2.288   7.991
 7602W        W14911   0.631   5.944   9.291
 7603W        W14912  12.805   2.293   0.650
 7604W        W14913   0.051   3.874   8.908
 7605W        W14914   5.120   9.979   8.804
 7606W        W14915   5.380   8.385   6.154
 7607W        W14916  18.358   6.494   7.850
 7608W        W14917   1.226   3.147   7.701
 7609W        W14918   4.078   9.939   9.978
 7610W        W14919  14.106   6.071   8.749
 7611W        W14920  18.651   1.249   9.481
 7612W        W14921  10.877   7.544   8.499
 7613W        W14922   6.456   7.514   7.709
 7614W        W14923  11.205   1.093   6.205
 7615W        W14924   3.168   3.746   7.524
 7616W        W14925  14.851   5.011   8.858
 7617W        W14926   2.691   7.246   7.098
 7618W        W14927  10.734   3.351   6.725
 7619W        W14928   4.452   3.238   8.935
 7620W        W14929   9.741   0.189   0.143
 7621W        W14930   2.063   0.994   8.878
 7622W        W14931  19.640   2.667   9.663
 7623W        W14932   4.070   5.134   0.706
 7624W        W14933   0.875   1.570   8.608
 7625W        W14934  18.228   7.718   7.889
 7626W        W14935  15.294   9.653   7.731
 7627W        W14936   1.003   8.025   6.817
 7628W        W14937  12.506   1.789   6.175
 7629W        W14938   3.107   0.299   0.195
 7630W        W14939   6.219   0.685   8.402
 7631W        W14940  12.402   9.793   0.834
 7632W        W14941  12.480   1.596   8.771
 7633W        W14942   4.623   2.037   6.584
 7634W        W14943  14.596   2.020   0.519
 7635W        W14944   1.361   5.182   7.446
 7636W        W14945   5.696   1.620   0.517
 7637W        W14946   9.779   4.920   8.453
 7638W        W14947  11.010   1.390   7.910
 7639W        W14948  16.220   7.834   8.736
 7640W        W14949   9.927   5.961   0.909
 7641W        W14950   3.395   2.553   7.700
 7642W        W14951  12.774   4.027   9.286
 7643W        W14952  18.017   6.092   0.813
 7644W        W14953   8.299   8.671   9.468
 7645W        W14954  14.408   0.341   8.953
 7646W        W14955  14.831   6.834   9.408
 7647W        W14956  18.229   1.106   6.726
 7648W        W14957   1.142   0.721   6.676
 7649W        W14958  18.069   4.244   7.629
 7650W        W14959  10.298   5.747   7.560
 7651W        W14960  10.782   7.995   0.212
 7652W        W14961  14.813   6.536   7.807
 7653W        W14962  12.349   3.218   9.390
 7654W        W14963   9.013   1.741   7.452
 7655W        W14964  19.501   8.638   9.242
 7656W        W14965   3.625   3.094   8.427
 7657W        W14966  17.240   3.613   0.781
 7658W        W14967  16.931   4.166   9.961
 7659W        W14968  10.680   8.931   0.175
 7660W        W14969   1.169   7.066   9.535
 7661W        W14970   6.346   6.578   0.520
 7662W        W14971   4.599   3.666   9.870
 7663W        W14972  17.994   6.891   0.202
 7664W        W14973  12.426   8.736   0.896
 7665W        W14974  14.404   3.713   9.641
 7666W        W14975  19.209   2.726   0.508
 7667W        W14976  16.758   8.318   0.581
 7668W        W14977  14.496   7.071   9.770
 7669W        W14978   5.703   5.487   8.903
 7670W        W14979   6.180   9.954   8.944
 7671W        W14980  19.701   6.810   7.456
 7672W        W14981  14.728   8.386   7.728
 7673W        W14982   5.430   7.523   7.900
 7674W        W14983  12.243   0.190   7.071
 7675W        W14984   3.359   4.384   8.634
 7676W        W14985   4.999   8.047   6.121
 7677W        W14986  13.130   4.633   8.815
 7678W        W14987   0.872   8.236   7.936
 7679W        W14988   9.387   8.372   9.071
 7680W        W14989  13.381   6.943   8.412
 7681W        W14990  16.055   3.016   9.418
 7682W        W14991   0.781   0.889   6.343
 7683W        W14992  14.642   2.110   8.975
 7684W        W14993  15.390   3.180   7.614
 7685W        W14994   2.873   0.329   8.832
 7686W        W14995  17.430   9.480   8.725
 7687W        W14996   2.745   1.540   8.292
 7688W        W14997  10.443   5.949   0.893
 7689W        W14998   9.943   7.171   8.283
 7690W        W14999  13.361   4.795   0.551
 7691W        W15000   0.736   4.814   8.703
 7692W        W15001   3.769   7.905   7.469
 7693W        W15002   2.200   3.858   8.555
 7694W        W15003  15.883   9.918   0.229
 7695W        W15004  14.538   0.388   6.200
 7696W        W15005  10.609   9.254   0.649
 7697W        W15006  19.823   6.913   0.329
 7698W        W15007  14.809   9.644   7.950
 7699W        W15008   2.520   0.938   9.515
 7700W        W15009  16.876   8.012   8.235
 7701W        W15010   2.909   6.379   7.959
 7702W        W15011   7.502   3.517   8.392
 7703W        W15012   5.300   3.751   6.993
 7704W        W15013  17.317   1.340   6.848
 7705W        W15014   6.088   6.027   9.280
 7706W        W15015   0.724   5.513   8.073
 7707W        W15016  10.479   2.208   7.165
 7708W        W15017  13.051   2.143   8.243
 7709W        W15018  16.806   7.102   6.812
 7710W        W15019   2.060   7.522   6.773
 7711W        W15020   2.219   3.744   6.524
 7712W        W15021   2.487   0.952   8.086
 7713W        W15022  13.268   2.237   0.364
 7714W        W15023   1.208   6.651   7.661
 7715W        W15024   6.559   6.988   7.827
 7716W        W15025  14.195   1.141   7.198
 7717W        W15026  12.559   2.170   9.722
 7718W        W15027   7.329   4.609   6.190
 7719W        W15028   4.810   4.226   1.030
 7720W        W15029   6.691   1.723   0.424
 7721W        W15030   9.460   1.446   6.231
 7722W        W15031  16.078   1.245   7.335
 7723W        W15032   7.222   4.148   6.544
 7724W        W15033  14.467   4.661   8.770
 7725W        W15034   1.160   1.152   8.700
 7726W        W15035  16.365   6.020   0.535
 7727W        W15036   1.410   2.582   7.850
 7728W        W15037   0.157   7.966   7.487
 7729W        W15038  12.699   3.950   7.846
 7730W        W15039  10.953   4.162   6.537
 7731W        W15040  12.573   4.739   8.109
 7732W        W15041  12.944   7.080   6.295
 7733W        W15042   6.665   2.321   7.267
 7734W        W15043  19.668   6.086   8.918
 7735W        W15044   8.515   0.063   7.943
 7736W        W15045   7.004   3.067   8.811
 7737W        W15046  10.858   0.226   7.407
 7738W        W15047  12.357   8.066   0.197
 7739W        W15048  12.146   6.576   9.989
 7740W        W15049   4.090   0.588   6.646
 7741W        W15050   4.807   5.832   6.046
 7742W        W15051  12.379   2.042   7.042
 7743W        W15052   6.885   2.610   9.070
 7744W        W15053  13.976   8.060   0.955
 7745W        W15054   0.304   0.642   6.587
 7746W        W15055   0.333   4.451   6.956
 7747W        W15056  10.241   9.466   6.133
 7748W        W15057   4.914   8.490   9.971
 7749W        W15058  10.829   5.921   0.545
 7750W        W15059   1.917   8.443   8.837
 7751W        W15060  12.340   5.162   7.871
 7752W        W15061   7.962   0.376   0.066
 7753W        W15062   2.765   8.531   7.999
 7754W        W15063   5.781   0.546   6.342
 7755W        W15064   5.310   6.232   1.102
 7756W        W15065  14.764   6.255   0.199
 7757W        W15066  16.191   3.079   8.341
 7758W        W15067   8.832   3.082   7.626
 7759W        W15068  13.872   5.796   7.448
 7760W        W15069   8.168   0.872   8.858
 7761W        W15070  17.493   4.639   6.997
 7762W        W15071  11.314   9.827   0.722
 7763W        W15072  13.681   4.035   8.791
 7764W        W15073  16.570   4.452   8.040
 7765W        W15074   9.938   8.372   0.126
 7766W        W15075   3.748   2.888   7.927
 7767W        W15076   7.818   2.202   7.521
 7768W        W15077   2.834   7.938   6.327
 7769W        W15078   4.197   0.953   7.982
 7770W        W15079  11.279   4.161   9.018
 7771W        W15080  15.208   7.861   8.787
 7772W        W15081  10.795   4.508   7.532
 7773W        W15082   7.202   4.739   0.616
 7774W        W15083  10.867   5.402   9.157
 7775W        W15084  11.530   6.086   9.473
 7776W        W15085  18.967   6.837   9.208
 7777W        W15086  11.765   8.893   0.197
 7778W        W15087  11.053   4.478   9.385
 7779W        W15088   9.428   5.364   6.613
 7780W        W15089  18.128   3.586   6.569
 7781W        W15090  18.645   0.413   0.331
 7782W        W15091  18.868   3.072   8.890
 7783W        W15092  17.397   6.431   9.257
 7784W        W15093  15.304   7.906   6.585
 7785W        W15094  17.517   9.177   6.433
 7786W        W15095   6.037   0.324   9.279
 7787W        W15096   2.885   6.823   8.469
 7788W        W15097   3.993   2.895   6.189
 7789W        W15098   6.824   4.468   7.915
 7790W        W15099   5.753   7.012   7.169
 7791W        W15100   2.005   2.076   9.391
 7792W        W15101  19.976   3.859   6.222
 7793W        W15102   7.178   7.833   8.847
 7794W        W15103   1.660   7.828   0.591
 7795W        W15104  18.794   1.712   9.698
 7796W        W15105   8.718   5.573   8.903
 7797W        W15106  13.407   2.773   0.665
 7798W        W15107  10.444   4.637   7.197
 7799W        W15108  14.351   1.792   8.690
 7800W        W15109   7.176   8.838   6.890
 7801W        W15110  16.972   1.734   0.219
 7802W        W15111   1.371   3.142   8.185
 7803W        W15112   8.849   3.961   6.824
 7804W        W15113   4.876   4.473   7.108
 7805W        W15114  10.799   0.296   0.336
 7806W        W15115  10.563   9.854   0.184
 7807W        W15116  15.546   4.186   9.127
 7808W        W15117   2.492   4.996   0.790
 7809W        W15118  10.992   8.821   8.901
 7810W        W15119   2.127   4.839   1.098
 7811W        W15120   4.097   8.201   9.118
 7812W        W15121  16.208   7.840   6.563
 7813W        W15122  19.679   2.698   0.715
 7814W        W15123   8.127   9.830   8.873
 7815W        W15124  15.035   1.188   9.401
 7816W        W15125  13.693   5.485   6.264
 7817W        W15126  12.991   2.030   6.248
 7818W        W15127  13.519   5.767   0.493
 7819W        W15128   2.097   7.369   9.300
 7820W        W15129   4.037   6.830   0.783
 7821W        W15130  10.847   2.774   6.687
 7822W        W15131   8.446   1.596   6.070
 7823W        W15132   2.229   9.782   8.947
 7824W        W15133  11.252   5.305   7.731
 7825W        W15134  19.526   2.194   9.450
 7826W        W15135   3.184   7.331   0.126
 7827W        W15136  19.625   3.140   8.365
 7828W        W15137  10.853   0.404   6.920
 7829W        W15138  14.476   2.104   6.676
 7830W        W15139   0.170   7.409   8.976
 7831W        W15140   9.041   3.529   0.143
 7832W        W15141  16.416   1.277   8.180
 7833W        W15142  13.306   5.805   9.230
 7834W        W15143  14.169   4.917   0.005
 7835W        W15144  10.631   0.750   0.067
 7836W        W15145   8.949   3.588   7.193
 7837W        W15146  10.466   1.694   7.246
 7838W        W15147   2.142   7.956   8.848
 7839W        W15148  19.950   9.947   6.360
 7840W        W15149   2.965   4.890   9.894
 7841W        W15150   1.962   2.512   8.762
 7842W        W15151  11.026   4.311   7.073
 7843W        W15152   6.727   3.843   8.998
 7844W        W15153  12.986   3.512   7.877
 7845W        W15154  16.730   9.317   7.016
 7846W        W15155   9.371   9.125   8.846
 7847W        W15156   0.084   0.488   9.970
 7848W        W15157  13.709   1.544   0.904
 7849W        W15158   5.661   7.656   9.172
 7850W        W15159   1.015   4.872   7.229
 7851W        W15160   8.878   9.145   7.941
 7852W        W15161   3.239   6.360   7.020
 7853W        W15162  17.470   3.073   9.693
 7854W        W15163   5.611   1.046   6.180
 7855W        W15164   4.665   2.199   8.509
 7856W        W15165  19.083   3.595   6.042
 7857W        W15166  10.094   4.065   8.864
 7858W        W15167  18.175   9.953   9.029
 7859W        W15168   3.601   3.671   0.322
 7860W        W15169  17.704   3.690   6.107
 7861W        W15170  14.091   7.219   7.869
 7862W        W15171   1.138   1.672   6.532
 7863W        W15172   8.173   0.410   6.644
 7864W        W15173   7.658   4.225   6.311
 7865W        W15174   0.568   6.413   9.948
 7866W        W15175  13.432   0.653   7.074
 7867W        W15176  19.160   8.030   6.357
 7868W        W15177   7.587   8.780   7.696
 7869W        W15178   7.656   9.705   6.216
 7870W        W15179   8.836   9.403   0.055
 7871W        W15180   0.115   6.516   0.480
 7872W        W15181  12.692   2.355   7.353
 7873W        W15182  15.955   3.843   9.007
 7874W        W15183  17.092   5.999   8.195
 7875W        W15184  15.144   6.100   7.854
 7876W        W15185  14.424   4.891   8.301
 7877W        W15186  19.589   8.236   0.575
 7878W        W15187  15.676   9.370   7.439
 7879W        W15188   3.341   2.293   9.606
 7880W        W15189  14.621   3.933   9.237
 7881W        W15190  19.682   8.366   8.330
 7882W        W15191   3.323   4.639   0.729
 7883W        W15192   0.643   9.346   0.237
 7884W        W15193  11.924   2.891   8.592
 7885W        W15194   3.831   3.133   6.624
 7886W        W15195   4.060   3.677   8.536
 7887W        W15196   6.340   1.955   7.373
 7888W        W15197   0.615   7.713   9.000
 7889W        W15198  12.047   6.586   8.416
 7890W        W15199   2.287   5.871   6.256
 7891W        W15200   7.929   5.981   6.995
 7892W        W15201   0.452   5.979   8.765
 7893W        W15202   6.728   7.409   9.535
 7894W        W15203   0.356   6.784   9.638
 7895W        W15204  16.924   1.667   5.883
 7896W        W15205  19.486   9.645   7.027
 7897W        W15206   6.263   5.049   8.320
 7898W        W15207  16.240   3.546   6.276
 7899W        W15208   8.791   2.056   6.615
 7900W        W15209   6.136   1.362   9.292
 7901W        W15210   3.549   5.079   0.814
 7902W        W15211   9.434   8.269   0.160
 7903W        W15212  11.695   0.607   9.851
 7904W        W15213  12.244   6.643   9.026
 7905W        W15214  14.720   3.664   6.737
 7906W        W15215  12.911   8.878   0.805
 7907W        W15216   5.013   0.695   6.898
 7908W        W15217   1.970   4.682   7.986
 7909W        W15218  12.033   4.367   0.124
 7910W        W15219   9.181   5.130   7.006
 7911W        W15220   6.987   3.070   7.934
 7912W        W15221  18.584   2.280   0.561
 7913W        W15222   8.345   1.268   6.827
 7914W        W15223  10.637   9.498   6.448
 7915W        W15224   2.029   2.239   0.153
 7916W        W15225  11.748   2.218   0.607
 7917W        W15226   0.922   5.110   8.320
 7918W        W15227  12.553   1.311   6.341
 7919W        W15228   0.389   9.557   7.952
 7920W        W15229   9.123   2.549   9.161
 7921W        W15230  14.926   5.528   0.672
 7922W        W15231  12.869   8.761   9.934
 7923W        W15232   2.274   7.227   7.788
 7924W        W15233   3.637   5.513   6.751
 7925W        W15234   3.465   9.436   8.794
 7926W        W15235  17.395   9.025   7.556
 7927W        W15236   9.399   8.613   9.703
 7928W        W15237   4.565   2.967   7.093
 7929W        W15238  19.587   0.203   7.788
 7930W        W15239   9.425   4.548   0.180
 7931W        W15240  17.143   6.112   7.678
 7932W        W15241  12.362   2.645   6.447
 7933W        W15242  19.065   3.509   7.564
 7934W        W15243   6.122   4.203   8.517
 7935W        W15244  12.315   1.483   7.521
 7936W        W15245   9.256   7.178   0.735
 7937W        W15246   0.349   4.607   7.945
 7938W        W15247   1.372   0.887   0.845
 7939W        W15248   2.884   6.863   0.130
 7940W        W15249   7.225   1.689   9.819
 7941W        W15250   3.312   8.867   7.530
 7942W        W15251   3.959   3.534   6.981
 7943W        W15252   4.502   3.696   0.595
 7944W        W15253   7.010   7.662   0.964
 7945W        W15254  16.783   6.880   9.503
 7946W        W15255   3.690   8.853   9.610
 7947W        W15256   9.768   4.110   9.293
 7948W        W15257   3.423   6.008   0.693
 7949W        W15258   5.096   1.863   9.202
 7950W        W15259  18.464   9.523   8.959
 7951W        W15260  19.241   7.383   9.800
 7952W        W15261  15.508   5.420   1.327
 7953W        W15262  14.595   1.224   7.491
 7954W        W15263   4.595   5.476   8.288
 7955W        W15264   1.000   6.778   6.987
 7956W        W15265  12.804   1.682   6.587
 7957W        W15266  13.253   3.035   7.258
 7958W        W15267  18.728   4.409   9.144
 7959W        W15268   7.499   0.992   7.151
 7960W        W15269   4.238   2.431   7.690
 7961W        W15270  14.547   4.386   8.328
 7962W        W15271  11.495   8.602   6.890
 7963W        W15272  15.450   7.008   8.066
 7964W        W15273  19.627   2.180   6.501
 7965W        W15274  11.045   6.500   8.258
 7966W        W15275  13.068   3.345   8.358
 7967W        W15276   2.865   0.620   9.275
 7968W        W15277  12.009   8.767   8.335
 7969W        W15278   2.161   7.997   9.702
 7970W        W15279  13.641   7.354   0.586
 7971W        W15280   4.561   4.616   8.452
 7972W        W15281  18.943   8.094   7.684
 7973W        W15282  16.645   0.846   0.878
 7974W        W15283  17.002   6.937   0.476
 7975W        W15284  11.431   7.816   0.130
 7976W        W15285  13.723   6.795   6.720
 7977W        W15286   2.532   5.489   6.559
 7978W        W15287   2.641   8.188   8.364
 7979W        W15288  19.658   5.628   9.151
 7980W        W15289   8.038   1.873   6.288
 7981W        W15290   3.150   2.437   0.588
 7982W        W15291   5.604   8.780   8.308
 7983W        W15292  14.653   8.591   8.210
 7984W        W15293   0.213   1.210   0.147
 7985W        W15294   7.731   3.396   0.872
 7986W        W15295  18.955   7.025   8.718
 7987W        W15296   5.454   7.745   6.115
 7988W        W15297   2.161   1.237   9.767
 7989W        W15298  13.773   3.228   8.840
 7990W        W15299  12.110   4.399   5.984
 7991W        W15300   3.227   1.791   0.402
 7992W        W15301  13.581   1.007   9.035
 7993W        W15302   7.687   0.772   9.667
 7994W        W15303   7.858   5.569   0.211
 7995W        W15304  19.179   7.155   6.589
 7996W        W15305   2.929   0.470   6.242
 7997W        W15306  13.788   3.180   0.640
 7998W        W15307  15.711   7.269   0.207
 7999W        W15308   4.487   0.754   8.952
 8000W        W15309  11.537   7.213   7.091
 8001W        W15310   7.009   1.244   8.225
 8002W        W15311   1.657   4.306   9.840
 8003W        W15312  11.350   2.061   0.925
 8004W        W15313  18.387   8.331   6.193
 8005W        W15314   5.882   3.103   9.877
 8006W        W15315  19.341   3.114   0.180
 8007W        W15316  12.511   3.156   0.414
 8008W        W15317  11.897   8.018   9.416
 8009W        W15318  15.943   1.494   6.558
 8010W        W15319  10.263   3.405   9.426
 8011W        W15320  18.969   3.370   0.889
 8012W        W15321  17.953   0.358   7.652
 8013W        W15322   2.934   7.744   9.254
 8014W        W15323  15.310   3.150   8.096
 8015W        W15324   0.719   7.864   6.184
 8016W        W15325  10.792   3.380   0.303
 8017W        W15326   7.408   4.160   8.038
 8018W        W15327  19.245   9.658   8.277
 8019W        W15328  14.564   5.051   7.309
 8020W        W15329  11.976   2.567   9.960
 8021W        W15330   6.967   9.113   0.402
 8022W        W15331   5.091   4.408   9.287
 8023W        W15332   0.053   5.343   0.918
 8024W        W15333  17.079   8.654   0.390
 8025W        W15334  16.845   2.477   7.092
 8026W        W15335   7.233   0.011   8.884
 8027W        W15336  12.544   9.239   9.319
 8028W        W15337   2.105   7.357   0.158
 8029W        W15338  14.643   2.674   7.965
 8030W        W15339   0.024   4.533   0.347
 8031W        W15340  15.918   1.654   8.228
 8032W        W15341  12.672   6.750   6.566
 8033W        W15342   8.055   8.725   7.931
 8034W        W15343  17.792   7.788   6.501
 8035W        W15344  18.615   7.795   6.842
 8036W        W15345  14.840   8.336   7.228
 8037W        W15346  18.703   9.107   6.793
 8038W        W15347   5.593   7.053   7.966
 8039W        W15348   5.568   0.166   9.511
 8040W        W15349   4.323   3.276   6.729
 8041W        W15350   5.141   6.157   0.226
 8042W        W15351  11.990   7.417   8.015
 8043W        W15352   5.458   2.047   7.955
 8044W        W15353  16.850   5.475   9.409
 8045W        W15354   6.701   8.618   8.983
 8046W        W15355   3.927   0.355   7.063
 8047W        W15356  13.654   8.164   0.139
 8048W        W15357   8.855   8.216   6.481
 8049W        W15358  15.315   8.312   0.594
 8050W        W15359   0.650   7.898   7.632
 8051W        W15360   8.812   3.737   8.882
 8052W        W15361  15.581   3.621   7.403
 8053W        W15362   5.757   9.693   6.693
 8054W        W15363  16.976   0.853   9.771
 8055W        W15364  13.696   8.944   6.628
 8056W        W15365  11.571   3.102   9.989
 8057W        W15366  11.242   1.251   6.696
 8058W        W15367   0.317   3.154   7.833
 8059W        W15368   2.415   6.433   7.896
 8060W        W15369  16.235   4.654   9.952
 8061W        W15370  10.338   9.630   9.746
 8062W        W15371  12.508   0.619   7.091
 8063W        W15372  12.833   2.879   6.505
 8064W        W15373  13.070   2.062   1.268
 8065W        W15374  16.737   0.518   6.615
 8066W        W15375  14.020   6.334   6.378
 8067W        W15376  15.098   4.227   6.345
 8068W        W15377  10.513   0.034   9.501
 8069W        W15378   7.568   9.767   0.223
 8070W        W15379   4.898   9.593   9.063
 8071W        W15380  10.961   5.577   7.092
 8072W        W15381  13.291   2.842   6.747
 8073W        W15382   5.496   8.157   9.327
 8074W        W15383   9.607   1.525   0.477
 8075W        W15384  16.506   7.859   9.956
 8076W        W15385  18.708   8.246   6.622
 8077W        W15386  14.988   5.060   9.350
 8078W        W15387   3.230   8.157   7.090
 8079W        W15388  18.531   9.242   6.220
 8080W        W15389  12.364   3.966   8.274
 8081W        W15390   9.216   6.493   9.783
 8082W        W15391   4.901   8.564   6.135
 8083W        W15392  15.993   6.553   6.903
 8084W        W15393  11.161   9.273   9.125
 8085W        W15394   9.933   7.762   9.760
 8086W        W15395  18.246   3.191   6.210
 8087W        W15396  13.818   0.737   9.960
 8088W        W15397   8.636   1.884   7.814
 8089W        W15398  16.332   5.326   6.887
 8090W        W15399   8.505   8.401   7.329
 8091W        W15400  16.113   5.014   0.737
 8092W        W15401   5.977   9.445   8.268
 8093W        W15402   5.524   6.863   8.448
 8094W        W15403  12.227   4.623   9.137
 8095W        W15404   7.523   1.221   0.662
 8096W        W15405  16.701   7.064   0.872
 8097W        W15406  16.125   2.373   6.856
 8098W        W15407  12.311   5.566   7.552
 8099W        W15408   7.135   1.265   9.172
 8100W        W15409  17.438   9.488   7.767
 8101W        W15410   2.301   5.467   7.439
 8102W        W15411   7.585   2.608   8.389
 8103W        W15412  10.499   4.519   8.500
 8104W        W15413  19.088   8.927   7.052
 8105W        W15414  10.234   2.678   8.516
 8106W        W15415  11.274   9.245   8.125
 8107W        W15416   1.994   0.170   9.611
 8108W        W15417  18.243   4.376   6.650
 8109W        W15418  17.626   6.227   7.548
 8110W        W15419  18.301   5.528   7.935
 8111W        W15420  12.170   5.689   8.037
 8112W        W15421  18.041   8.681   9.864
 8113W        W15422  14.691   6.419   9.120
 8114W        W15423   0.159   5.082   7.228
 8115W        W15424  10.072   0.714   8.665
 8116W        W15425   8.191   2.542   0.550
 8117W        W15426  12.186   3.579   0.370
 8118W        W15427  18.191   6.063   7.008
 8119W        W15428  14.979   9.585   6.110
 8120W        W15429  16.543   5.816   6.715
 8121W        W15430  17.087   0.404   9.528
 8122W        W15431  13.632   6.788   7.219
 8123W        W15432  15.530   5.073   9.134
 8124W        W15433  11.950   7.757   9.873
 8125W        W15434   8.475   4.487   9.300
 8126W        W15435   5.977   5.644   6.196
 8127W        W15436  16.486   9.705   8.521
 8128W        W15437   1.545   4.806   7.737
 8129W        W15438   5.665   6.049   9.598
 8130W        W15439  17.270   6.513   0.300
 8131W        W15440   4.241   4.132   8.752
 8132W        W15441  10.004   2.752   9.007
 8133W        W15442  17.362   2.624   9.984
 8134W        W15443  15.631   2.945   0.357
 8135W        W15444   3.714   7.156   8.389
 8136W        W15445   3.262   5.577   9.795
 8137W        W15446   4.407   4.699   7.093
 8138W        W15447   9.685   9.884   6.122
 8139W        W15448  17.465   0.644   1.182
 8140W        W15449   9.666   3.397   6.644
 8141W        W15450   4.140   5.556   7.062
 8142W        W15451   4.601   5.480   6.332
 8143W        W15452  14.601   7.457   7.683
 8144W        W15453   9.693   9.639   7.663
 8145W        W15454  13.004   9.440   0.426
 8146W        W15455   6.005   4.023   0.639
 8147W        W15456  17.423   0.342   7.685
 8148W        W15457   6.435   8.414   7.187
 8149W        W15458   4.694   4.119   8.434
 8150W        W15459  19.592   6.007   6.438
 8151W        W15460   7.471   5.140   8.895
 8152W        W15461   5.798   4.922   9.128
 8153W        W15462   9.784   9.498   8.858
 8154W        W15463   9.654   9.340   6.826
 8155W        W15464  10.758   9.039   6.645
 8156W        W15465   0.318   9.828   7.186
 8157W        W15466  14.414   6.861   9.108
 8158W        W15467  19.270   5.288   0.523
 8159W        W15468  19.365   3.739   7.208
 8160W        W15469   2.359   3.396   8.410
 8161W        W15470   4.603   1.117   7.208
 8162W        W15471  13.942   2.758   8.709
 8163W        W15472   9.740   5.693   8.820
 8164W        W15473   6.792   2.057   6.741
 8165W        W15474  17.609   9.840   9.857
 8166W        W15475  14.905   4.016   7.912
 8167W        W15476   0.658   9.840   0.481
 8168W        W15477  17.473   3.139   0.679
 8169W        W15478  16.880   1.570   8.173
 8170W        W15479  12.065   3.832   7.271
 8171W        W15480  17.229   3.398   6.785
 8172W        W15481   1.677   2.371   6.774
 8173W        W15482   5.565   5.654   6.948
 8174W        W15483  11.152   3.298   8.739
 8175W        W15484   3.687   6.407   6.722
 8176W        W15485   4.633   8.787   8.565
 8177W        W15486  17.058   0.273   8.519
 8178W        W15487   8.434   7.323   0.360
 8179W        W15488   0.371   8.475   6.590
 8180W        W15489   4.801   8.979   6.562
 8181W        W15490   2.383   5.340   0.103
 8182W        W15491   1.170   9.929   8.296
 8183W        W15492   2.220   9.981   6.342
 8184W        W15493   8.602   9.520   8.888
 8185W        W15494   6.136   1.381   6.761
 8186W        W15495   1.165   5.209   9.557
 8187W        W15496   7.209   6.865   0.937
 8188W        W15497   2.888   9.661   9.599
 8189W        W15498   6.054   7.655   6.084
 8190W        W15499  17.687   0.861   7.685
 8191W        W15500   1.119   5.647   6.204
 8192W        W15501   2.993   8.533   6.748
 8193W        W15502   9.493   2.503   6.378
 8194W        W15503  18.938   5.198   6.055
 8195W        W15504  14.079   5.298   7.546
 8196W        W15505   8.602   3.393   0.952
 8197W        W15506  11.826   7.011   8.252
 8198W        W15507  16.412   8.865   7.689
 8199W        W15508   3.066   8.932   7.982
 8200W        W15509   7.182   3.753   6.179
 8201W        W15510  12.569   9.810   6.537
 8202W        W15511  11.433   1.617   0.111
 8203W        W15512   4.275   9.981   6.920
 8204W        W15513  19.883   0.079   8.918
 8205W        W15514  12.314   0.375   0.284
 8206W        W15515  13.292   4.809   7.787
 8207W        W15516  14.817   8.044   6.429
 8208W        W15517  15.470   9.860   9.226
 8209W        W15518  11.493   1.865   9.632
 8210W        W15519  17.710   6.494   9.649
 8211W        W15520   0.770   7.797   8.162
 8212W        W15521  15.015   3.125   0.048
 8213W        W15522  14.076   6.404   8.330
 8214W        W15523  11.035   6.409   6.528
 8215W        W15524  13.220   6.521   7.122
 8216W        W15525   7.172   8.355   8.917
 8217W        W15526  12.972   0.977   6.286
 8218W        W15527  10.922   6.560   7.422
 8219W        W15528   6.617   4.294   9.769
 8220W        W15529   8.335   9.162   7.835
 8221W        W15530  18.666   8.979   8.764
 8222W        W15531   9.162   9.903   6.352
 8223W        W15532   5.274   1.379   9.452
 8224W        W15533  15.856   3.907   9.499
 8225W        W15534  11.862   4.188   7.628
 8226W        W15535   8.219   9.069   0.163
 8227W        W15536   0.887   9.885   6.465
 8228W        W15537   0.218   5.809   0.751
 8229W        W15538   8.016   8.139   8.750
 8230W        W15539  19.836   4.595   9.850
 8231W        W15540  13.637   5.382   9.180
 8232W        W15541  17.290   0.780   8.480
 8233W        W15542  16.655   5.770   8.464
 8234W        W15543  11.230   8.114   6.890
 8235W        W15544  16.786   9.715   7.864
 8236W        W15545   6.099   2.340   0.236
 8237W        W15546  10.278   5.599   9.968
 8238W        W15547  13.977   9.758   7.305
 8239W        W15548  13.512   6.738   7.698
 8240W        W15549   2.373   3.260   6.690
 8241W        W15550   3.777   8.135   6.565
 8242W        W15551  15.527   4.194   0.137
 8243W        W15552   6.946   0.394   9.105
 8244W        W15553  14.646   7.307   9.208
 8245W        W15554   6.893   0.043   0.150
 8246W        W15555  18.240   1.347   0.281
 8247W        W15556  12.407   6.023   6.403
 8248W        W15557  14.839   3.958   8.432
 8249W        W15558   9.640   8.782   0.146
 8250W        W15559  14.263   2.161   7.547
 8251W        W15560  19.991   3.071   7.443
 8252W        W15561   1.583   6.061   6.920
 8253W        W15562  12.144   5.175   9.129
 8254W        W15563  15.607   1.196   0.774
 8255W        W15564  18.453   4.643   0.588
 8256W        W15565  12.056   2.095   9.720
 8257W        W15566   3.858   0.016   8.008
 8258W        W15567   2.677   3.376   0.667
 8259W        W15568  17.631   4.602   8.895
 8260W        W15569   3.844   5.513   9.011
 8261W        W15570  13.301   7.692   9.273
 8262W        W15571   4.380   0.292   8.737
 8263W        W15572  16.419   1.299   8.714
 8264W        W15573   0.896   7.545   8.604
 8265W        W15574   3.952   9.384   8.925
 8266W        W15575  14.038   0.642   7.347
 8267W        W15576  11.956   2.561   9.450
 8268W        W15577   1.314   3.957   6.758
 8269W        W15578  13.749   2.993   9.564
 8270W        W15579  15.865   8.246   0.529
 8271W        W15580   8.328   2.192   7.512
 8272W        W15581   3.555   0.155   0.432
 8273W        W15582  15.837   7.078   9.296
 8274W        W15583   6.186   6.463   8.938
 8275W        W15584   5.808   8.615   8.767
 8276W        W15585   7.087   8.788   7.890
 8277W        W15586   0.008   7.205   7.588
 8278W        W15587  17.166   4.686   9.084
 8279W        W15588   8.364   2.923   6.121
 8280W        W15589  18.382   8.558   8.897
 8281W        W15590  18.348   4.601   9.717
 8282W        W15591  14.151   5.446   9.136
 8283W        W15592  19.853   0.938   6.241
 8284W        W15593  14.862   5.571   5.714
 8285W        W15594  17.490   6.860   8.758
 8286W        W15595   6.499   3.610   7.389
 8287W        W15596  19.330   4.773   9.698
 8288W        W15597  19.105   6.648   6.589
 8289W        W15598  17.486   0.198   0.899
 8290W        W15599   2.312   9.642   0.372
 8291W        W15600   7.507   5.136   7.987
 8292W        W15601  14.119   9.291   0.163
 8293W        W15602   1.920   3.872   8.989
 8294W        W15603  15.219   8.327   7.586
 8295W        W15604  14.916   1.597   9.085
 8296W        W15605   6.746   8.574   7.563
 8297W        W15606  19.335   0.844   6.989
 8298W        W15607   6.915   7.213   0.764
 8299W        W15608  12.355   5.271   0.803
 8300W        W15609   8.343   5.969   9.728
 8301W        W15610  14.836   1.596   7.246
 8302W        W15611  15.192   2.749   8.995
 8303W        W15612   5.971   2.744   7.488
 8304W        W15613   8.640   3.453   6.776
 8305W        W15614  14.407   7.573   9.736
 8306W        W15615   4.622   1.662   0.696
 8307W        W15616  12.317   3.132   8.362
 8308W        W15617   9.782   3.482   0.272
 8309W        W15618  10.630   4.913   9.058
 8310W        W15619   6.055   6.887   9.201
 8311W        W15620   4.068   6.332   0.244
 8312W        W15621   9.480   4.055   7.957
 8313W        W15622  11.831   1.339   0.331
 8314W        W15623  15.047   8.390   6.755
 8315W        W15624   7.816   0.743   7.468
 8316W        W15625  17.160   8.047   8.660
 8317W        W15626   7.116   2.550   9.518
 8318W        W15627  17.870   1.753   9.728
 8319W        W15628   6.230   1.633   9.715
 8320W        W15629  11.683   4.585   9.102
 8321W        W15630   9.663   5.553   6.212
 8322W        W15631  16.856   3.243   6.460
 8323W        W15632   9.370   0.239   1.024
 8324W        W15633  14.827   0.121   8.695
 8325W        W15634   2.250   3.455   8.912
 8326W        W15635  16.865   2.434   0.445
 8327W        W15636  19.056   9.504   7.825
 8328W        W15637  17.401   1.858   6.893
 8329W        W15638  18.419   7.301   0.861
 8330W        W15639   4.763   0.647   7.376
 8331W        W15640   8.411   2.073   8.250
 8332W        W15641  15.064   4.579   5.879
 8333W        W15642  17.222   8.537   8.842
 8334W        W15643   1.346   7.524   7.414
 8335W        W15644   2.801   3.923   9.285
 8336W        W15645  18.160   2.232   0.266
 8337W        W15646  13.053   8.966   7.415
 8338W        W15647  17.523   7.478   7.398
 8339W        W15648  11.939   0.748   9.026
 8340W        W15649  12.749   8.109   0.555
 8341W        W15650  11.205   3.584   7.482
 8342W        W15651  12.022   3.373   6.870
 8343W        W15652   3.035   9.745   6.521
 8344W        W15653   9.505   3.585   8.153
 8345W        W15654   8.010   7.904   7.867
 8346W        W15655  11.942   9.399   7.057
 8347W        W15656  17.653   4.332   9.351
 8348W        W15657   4.356   3.392   7.318
 8349W        W15658  16.445   3.452   5.826
 8350W        W15659  11.501   7.114   7.876
 8351W        W15660   9.268   3.230   6.324
 8352W        W15661  14.935   5.646   7.870
 8353W        W15662   8.306   4.818   6.672
 8354W        W15663   8.232   4.914   8.428
 8355W        W15664  16.540   1.129   7.091
 8356W        W15665   6.049   5.646   6.696
 8357W        W15666   5.566   3.004   0.287
 8358W        W15667   9.910   3.065   0.003
 8359W        W15668  13.332   5.694   9.990
 8360W        W15669   7.620   4.427   0.616
 8361W        W15670   8.517   3.063   0.098
 8362W        W15671  14.208   3.185   9.711
 8363W        W15672   0.297   6.978   0.691
 8364W        W15673   6.148   7.154   7.474
 8365W        W15674  18.761   3.652   0.455
 8366W        W15675  19.827  10.001   7.199
 8367W        W15676   2.566   0.180   0.893
 8368W        W15677   0.985   8.861   7.046
 8369W        W15678  11.300   6.178   0.638
 8370W        W15679   7.152   4.244   0.620
 8371W        W15680   1.331   8.124   6.436
 8372W        W15681  14.806   5.437   7.062
 8373W        W15682   5.509   0.177   8.513
 8374W        W15683  18.422   9.906   6.765
 8375W        W15684   1.393   6.245   8.926
 8376W        W15685  12.332   1.506   8.272
 8377W        W15686  18.731   4.204   0.591
 8378W        W15687  18.586   1.262   8.409
 8379W        W15688  10.181   9.170   8.876
 8380W        W15689   6.011   4.308   6.743
 8381W        W15690  14.537   2.109   9.499
 8382W        W15691  12.972   5.331   0.043
 8383W        W15692  10.348   2.361   8.897
 8384W        W15693   7.366   1.395   7.916
 8385W        W15694  15.302   0.603   0.524
 8386W        W15695  18.830   8.523   7.953
 8387W        W15696   5.862   8.386   7.017
 8388W        W15697  16.356   0.678   6.964
 8389W        W15698   6.899   6.099   0.977
 8390W        W15699  11.379   2.210   7.071
 8391W        W15700   3.261   7.811   7.470
 8392W        W15701  12.660   9.241   9.828
 8393W        W15702   5.761   3.304   0.648
 8394W        W15703   9.382   3.728   0.450
 8395W        W15704   9.083   3.443   0.754
 8396W        W15705   7.440   7.315   6.866
 8397W        W15706   3.519   0.648   8.786
 8398W        W15707   9.481   3.672   7.188
 8399W        W15708  11.803   3.972   0.401
 8400W        W15709   4.503   2.278   9.908
 8401W        W15710  17.832   2.690   8.690
 8402W        W15711  18.844   1.768   0.198
 8403W        W15712   8.761   4.746   8.029
 8404W        W15713   4.497   7.192   7.776
 8405W        W15714   0.850   0.289   0.162
 8406W        W15715   6.641   8.160   6.799
 8407W        W15716   5.637   4.335   9.842
 8408W        W15717  13.464   9.801   6.557
 8409W        W15718   5.764   8.331   6.492
 8410W        W15719  18.396   1.222   7.195
 8411W        W15720  17.023   7.520   7.491
 8412W        W15721  18.370   9.741   6.268
 8413W        W15722  13.675   9.149   0.417
 8414W        W15723  16.447   9.077   8.597
 8415W        W15724   9.826   1.141   0.217
 8416W        W15725   7.211   3.250   6.136
 8417W        W15726   7.590   7.583   9.532
 8418W        W15727  15.973   4.124   0.987
 8419W        W15728  16.323   8.070   8.281
 8420W        W15729  13.399   7.187   7.440
 8421W        W15730   5.018   1.902   7.353
 8422W        W15731  14.091   3.426   6.873
 8423W        W15732  19.583   1.739   9.750
 8424W        W15733   1.375   2.109   6.326
 8425W        W15734  17.835   5.093   0.864
 8426W        W15735   6.928   4.378   0.188
 8427W        W15736   6.539   2.746   7.526
 8428W        W15737   7.686   9.372   9.534
 8429W        W15738  10.083   7.497   0.189
 8430W        W15739   9.232   4.294   0.583
 8431W        W15740  19.005   6.376   7.456
 8432W        W15741  15.866   4.039   7.463
 8433W        W15742   8.852   8.253   7.696
 8434W        W15743   9.534   4.496   8.280
 8435W        W15744   7.796   3.080   8.385
 8436W        W15745  14.000   1.632   9.470
 8437W        W15746   1.051   2.316   8.091
 8438W        W15747  19.144   7.542   6.211
 8439W        W15748  16.031   0.333   1.164
 8440W        W15749  13.018   4.478   0.302
 8441W        W15750  13.599   6.964   8.864
 8442W        W15751  11.062   0.939   9.604
 8443W        W15752   9.079   8.665   7.963
 8444W        W15753   2.794   8.935   6.982
 8445W        W15754   2.744   6.692   6.638
 8446W        W15755  15.987   1.031   6.859
 8447W        W15756   6.966   1.647   7.750
 8448W        W15757  19.465   8.939   6.575
 8449W        W15758  13.985   1.570   8.962
 8450W        W15759   8.238   0.887   6.476
 8451W        W15760  10.164   8.193   0.550
 8452W        W15761   6.347   4.085   8.080
 8453W        W15762   2.020   3.136   0.385
 8454W        W15763  19.911   1.599   8.685
 8455W        W15764  19.788   3.151   0.443
 8456W        W15765   5.699   6.525   8.099
 8457W        W15766   1.650   9.993   7.576
 8458W        W15767  17.248   8.802   8.002
 8459W        W15768   5.068   5.802   8.384
 8460W        W15769   2.468   7.197   0.595
 8461W        W15770  19.683   3.214   8.881
 8462W        W15771  17.237   7.053   7.527
 8463W        W15772   9.628   0.660   6.999
 8464W        W15773  11.376   3.668   9.792
 8465W        W15774   2.994   7.675   7.044
 8466W        W15775  16.505   4.476   7.535
 8467W        W15776  12.217   9.073   0.019
 8468W        W15777  14.615   4.228   9.641
 8469W        W15778   2.915   6.074   0.640
 8470W        W15779  16.891   6.401   9.000
 8471W        W15780   0.336   8.924   0.566
 8472W        W15781  16.439   5.725   7.206
 8473W        W15782   9.057   7.783   7.771
 8474W        W15783  11.846   3.394   8.643
 8475W        W15784  14.822   0.546   0.748
 8476W        W15785   5.795   4.161   8.104
 8477W        W15786  17.027   7.751   9.344
 8478W        W15787  13.023   5.151   8.690
 8479W        W15788   9.258   5.011   9.334
 8480W        W15789  16.335   0.231   6.724
 8481W        W15790   1.448   8.854   0.109
 8482W        W15791  14.801   6.881   5.979
 8483W        W15792   9.429   6.364   8.301
 8484W        W15793   4.081   7.251   6.558
 8485W        W15794   9.095   2.058   7.017
 8486W        W15795   4.588   5.989   0.815
 8487W        W15796   4.731   5.906   8.016
 8488W        W15797   8.205   0.258   9.181
 8489W        W15798  10.044   5.513   9.500
 8490W        W15799  10.205   1.989   6.428
 8491W        W15800   9.962   4.530   0.230
 8492W        W15801   5.790   0.321   0.446
 8493W        W15802  11.013   5.447   0.532
 8494W        W15803  17.758   9.192   0.670
 8495W        W15804  17.073   8.466   8.354
 8496W        W15805   9.415   6.120   7.828
 8497W        W15806  14.349   1.269   0.643
 8498W        W15807   6.271   3.050   9.495
 8499W        W15808  12.658   0.247   8.922
 8500W        W15809   1.383   7.161   7.776
 8501W        W15810  13.217   7.691   7.177
 8502W        W15811   8.692   1.534   9.068
 8503W        W15812  13.223   6.648   6.187
 8504W        W15813  19.166   0.514   8.493
 8505W        W15814   7.675   1.793   0.056
 8506W        W15815   1.991   5.685   8.753
 8507W        W15816   0.652   1.077   8.686
 8508W        W15817   2.830   9.196   9.834
 8509W        W15818   3.509   7.031   8.907
 8510W        W15819   4.671   1.119   9.277
 8511W        W15820   5.343   1.718   8.773
 8512W        W15821  13.944   7.158   7.073
 8513W        W15822   0.831   5.472   9.288
 8514W        W15823  12.268   6.568   7.961
 8515W        W15824   8.204   2.259   8.705
 8516W        W15825   1.098   7.159   9.033
 8517W        W15826  12.568   4.478   0.518
 8518W        W15827  18.317   8.560   0.670
 8519W        W15828   1.982   6.895   7.023
 8520W        W15829   2.127   3.431   0.809
 8521W        W15830  11.252   8.505   6.045
 8522W        W15831   0.450   5.275   5.990
 8523W        W15832  10.686   4.789   6.218
 8524W        W15833  10.537   7.060   7.610
 8525W        W15834  15.478   9.297   0.989
 8526W        W15835  11.335   0.170   7.580
 8527W        W15836   7.102   4.954   6.736
 8528W        W15837  14.348   7.426   8.826
 8529W        W15838   5.620   6.842   8.954
 8530W        W15839   8.229   8.755   7.074
 8531W        W15840   5.096   2.447   9.149
 8532W        W15841   0.102   6.039   6.265
 8533W        W15842  12.440   4.944   9.497
 8534W        W15843   0.662   0.457   0.610
 8535W        W15844  11.689   2.666   8.178
 8536W        W15845   3.782   3.956   8.982
 8537W        W15846  19.096   4.323   8.136
 8538W        W15847  16.681   8.712   9.719
 8539W        W15848   9.032   6.643   6.306
 8540W        W15849  10.735   4.175   9.711
 8541W        W15850   9.734   8.242   7.760
 8542W        W15851  11.925   8.498   6.631
 8543W        W15852   6.151   6.059   9.803
 8544W        W15853  16.563   5.395   6.421
 8545W        W15854  12.160   6.121   0.230
 8546W        W15855  13.193   9.300   0.898
 8547W        W15856   0.155   3.443   6.475
 8548W        W15857  11.780   7.362   7.518
 8549W        W15858  10.802   4.604   0.927
 8550W        W15859  19.361   8.299   8.796
 8551W        W15860  14.517   8.112   8.121
 8552W        W15861   0.375   8.933   9.167
 8553W        W15862   5.660   7.907   7.128
 8554W        W15863   7.811   8.545   9.722
 8555W        W15864  16.471   2.231   8.644
 8556W        W15865   9.785   9.812   6.639
 8557W        W15866  11.467   8.315   6.488
 8558W        W15867  19.635   2.821   7.726
 8559W        W15868   2.199   0.108   0.527
 8560W        W15869  17.015   3.623   8.117
 8561W        W15870   1.599   7.160   9.787
 8562W        W15871   5.144   2.127   5.955
 8563W        W15872  15.667   7.096   6.302
 8564W        W15873   7.162   3.582   8.802
 8565W        W15874   5.072   9.492   8.046
 8566W        W15875   5.595   2.670   8.841
 8567W        W15876  12.083   8.942   6.836
 8568W        W15877  18.529   0.913   0.384
 8569W        W15878   4.392   9.509   0.219
 8570W        W15879  15.664   8.524   6.965
 8571W        W15880   6.256   3.996   7.161
 8572W        W15881  18.754   7.894   0.733
 8573W        W15882   8.507   6.081   6.271
 8574W        W15883  16.825   7.699   8.876
 8575W        W15884   0.065   5.051   6.256
 8576W        W15885   1.582   1.629   6.289
 8577W        W15886   8.709   5.626   8.060
 8578W        W15887  18.740   7.603   7.776
 8579W        W15888   0.574   8.062   9.797
 8580W        W15889   9.297   7.654   7.163
 8581W        W15890  19.901   3.505   0.787
 8582W        W15891  19.158   8.202   9.292
 8583W        W15892  10.936   2.311   0.750
 8584W        W15893  14.068   5.989   6.981
 8585W        W15894  17.128   7.223   8.797
 8586W        W15895  19.251   7.265   0.801
 8587W        W15896  17.468   8.732   0.726
 8588W        W15897   7.729   3.946   9.264
 8589W        W15898  14.456   8.000   7.125
 8590W        W15899   4.966   0.156   7.389
 8591W        W15900   5.460   6.478   6.760
 8592W        W15901  10.881   7.543   9.046
 8593W        W15902  12.362   8.418   7.452
 8594W        W15903   8.777   5.285   7.668
 8595W        W15904  15.520   8.820   6.185
 8596W        W15905  19.423   4.917   0.183
 8597W        W15906   3.901   7.533   9.741
 8598W        W15907   7.170   2.029   8.024
 8599W        W15908  16.186   7.482   0.128
 8600W        W15909   9.304   2.631   8.331
 8601W        W15910  16.769   8.317   0.058
 8602W        W15911   3.170   3.752   6.978
 8603W        W15912  13.112   7.985   0.899
 8604W        W15913   8.189   6.447   8.533
 8605W        W15914  13.163   5.517   7.861
 8606W        W15915  18.086   0.434   8.833
 8607W        W15916   4.626   2.094   7.077
 8608W        W15917  12.052   7.087   7.149
 8609W        W15918  15.971   6.486   8.567
 8610W        W15919   2.491   2.814   6.898
 8611W        W15920  16.452   9.243   9.902
 8612W        W15921   2.481   8.958   7.940
 8613W        W15922   9.289   4.068   8.432
 8614W        W15923  19.450   4.542   7.437
 8615W        W15924   3.109   4.821   6.094
 8616W        W15925  19.013   5.636   7.009
 8617W        W15926   9.863   8.731   7.654
 8618W        W15927   9.478   3.631   9.337
 8619W        W15928   7.197   7.378   9.803
 8620W        W15929   7.790   9.020   8.693
 8621W        W15930   3.245   6.507   9.785
 8622W        W15931   3.727   0.800   8.307
 8623W        W15932  15.412   8.802   8.614
 8624W        W15933   4.691   4.151   0.025
 8625W        W15934  13.238   5.923   6.622
 8626W        W15935   8.843   0.272   9.800
 8627W        W15936  14.151   0.313   6.515
 8628W        W15937  19.151   1.484   9.416
 8629W        W15938   1.414   9.612   7.889
 8630W        W15939  17.687   1.038   0.935
 8631W        W15940   5.049   6.345   6.448
 8632W        W15941  12.934   4.669   6.326
 8633W        W15942  11.106   9.635   6.256
 8634W        W15943   3.972   5.468   8.100
 8635W        W15944  13.493   8.483   7.820
 8636W        W15945  11.435   0.277   9.087
 8637W        W15946  19.293   3.016   9.166
 8638W        W15947  15.474   0.602   6.754
 8639W        W15948   0.411   3.622   6.892
 8640W        W15949  16.910   4.194   6.240
 8641W        W15950   1.863   0.836   0.637
 8642W        W15951  10.574   5.739   6.173
 8643W        W15952   3.206   1.618   7.435
 8644W        W15953   9.061   8.169   0.704
 8645W        W15954   1.095   4.013   7.227
 8646W        W15955  13.923   5.566   7.953
 8647W        W15956  13.005   9.432   7.640
 8648W        W15957  14.781   6.102   6.510
 8649W        W15958   6.786   9.723   6.435
 8650W        W15959   6.906   7.886   9.718
 8651W        W15960   6.931   6.825   8.164
 8652W        W15961   7.972   8.578   0.216
 8653W        W15962   2.286   0.216   0.017
 8654W        W15963  16.518   0.986   0.375
 8655W        W15964  19.855   9.990   0.920
 8656W        W15965  11.483   7.266   6.289
 8657W        W15966   1.747   0.551   7.350
 8658W        W15967   1.731   1.260   0.883
 8659W        W15968   3.435   2.713   8.701
 8660W        W15969   7.831   8.106   0.054
 8661W        W15970   0.437   6.717   8.684
 8662W        W15971  18.465   5.580   7.028
 8663W        W15972   9.623   1.902   7.870
 8664W        W15973  10.894   4.075   5.994
 8665W        W15974   8.284   5.326   7.467
 8666W        W15975  17.992   2.574   1.220
 8667W        W15976   4.341   0.679   7.083
 8668W        W15977   6.734   0.764   0.560
 8669W        W15978   8.660   1.750   0.140
 8670W        W15979   5.012   1.358   8.505
 8671W        W15980  19.961   9.051   6.714
 8672W        W15981  19.949   9.700   6.815
 8673W        W15982   4.579   6.504   7.229
 8674W        W15983   5.435   0.212   0.827
 8675W        W15984  16.341   3.984   7.597
 8676W        W15985  18.888   3.925   9.217
 8677W        W15986  14.470   4.946   9.216
 8678W        W15987   6.588   4.578   6.058
 8679W        W15988  15.519   4.135   6.641
 8680W        W15989   8.626   4.387   6.597
 8681W        W15990  10.111   7.693   6.549
 8682W        W15991  17.259   8.176   0.095
 8683W        W15992  16.074   2.274   7.378
 8684W        W15993  11.354   1.373   9.577
 8685W        W15994   2.723   2.070   6.123
 8686W        W15995   0.944   5.816   8.874
 8687W        W15996   9.942   6.489   0.246
 8688W        W15997  18.458   7.062   8.605
 8689W        W15998  15.736   9.644   8.840
 8690W        W15999  15.395   3.801   9.848
 8691W        W16000   1.734   0.340   0.558
 8692W        W16001   4.135   5.503   6.554
 8693W        W16002  17.823   4.727   7.509
 8694W        W16003  13.861   5.870   9.189
 8695W        W16004   8.378   8.752   0.531
 8696W        W16005   2.152   9.623   7.160
 8697W        W16006   4.710   9.767   7.141
 8698W        W16007  19.912   3.783   6.777
 8699W        W16008  14.487   7.443   0.246
 8700W        W16009   5.015   8.160   9.164
 8701W        W16010  15.513   6.773   0.167
 8702W        W16011   6.984   9.266   6.660
 8703W        W16012   8.320   0.163   9.650
 8704W        W16013  19.958   8.243   0.972
 8705W        W16014  17.969   4.921   9.840
 8706W        W16015  14.697   3.054   8.373
 8707W        W16016   6.449   9.242   8.290
 8708W        W16017  17.581   9.507   9.224
 8709W        W16018   4.311   2.840   8.589
 8710W        W16019  12.724   4.316   8.372
 8711W        W16020  13.370   4.602   7.122
 8712W        W16021  10.551   5.246   7.050
 8713W        W16022  15.718   9.930   9.728
 8714W        W16023  18.290   1.691   7.359
 8715W        W16024   1.698   4.529   6.103
 8716W        W16025  12.874   3.816   8.324
 8717W        W16026   8.805   7.471   6.990
 8718W        W16027  13.628   4.125   7.234
 8719W        W16028  12.025   8.891   6.323
 8720W        W16029  18.133   2.406   6.036
 8721W        W16030   4.301   5.422   9.912
 8722W        W16031   8.543   9.269   0.505
 8723W        W16032   1.304   2.682   8.418
 8724W        W16033   9.691   6.371   0.669
 8725W        W16034  13.143   8.148   7.987
 8726W        W16035   8.623   4.942   0.185
 8727W        W16036   0.072   9.297   0.350
 8728W        W16037  14.023   5.629   0.632
 8729W        W16038   2.255   0.670   7.265
 8730W        W16039  16.169   5.892   1.024
 8731W        W16040  12.831   0.529   9.581
 8732W        W16041   9.478   2.324   9.906
 8733W        W16042   0.232   3.221   0.146
 8734W        W16043   5.269   8.028   7.465
 8735W        W16044   6.581   2.558   0.259
 8736W        W16045  14.183   2.272   0.721
 8737W        W16046   3.487   4.085   8.082
 8738W        W16047   8.620   6.604   7.953
 8739W        W16048  14.743   2.464   0.217
 8740W        W16049   4.695   2.585   8.830
 8741W        W16050   5.517   7.812   0.171
 8742W        W16051  16.251   6.917   0.671
 8743W        W16052  13.166   0.323   7.579
 8744W        W16053  13.003   6.117   0.785
 8745W        W16054  16.165   0.663   6.489
 8746W        W16055   3.976   8.350   0.729
 8747W        W16056   6.935   5.609   9.382
 8748W        W16057  12.729   4.026   0.316
 8749W        W16058  10.611   8.466   7.333
 8750W        W16059  17.676   5.093   7.164
 8751W        W16060  17.179   2.166   0.751
 8752W        W16061  16.192   6.164   9.192
 8753W        W16062  10.604   0.740   6.297
 8754W        W16063  12.085   5.990   7.353
 8755W        W16064  16.899   1.960   6.823
 8756W        W16065   1.755   0.654   9.579
 8757W        W16066   5.021   4.450   7.670
 8758W        W16067  16.252   0.497   0.727
 8759W        W16068   6.922   7.986   6.352
 8760W        W16069  16.072   2.604   8.113
 8761W        W16070   2.138   5.431   6.949
 8762W        W16071  11.548   7.636   7.876
 8763W        W16072   9.860   1.748   9.210
 8764W        W16073  11.225   8.813   7.870
 8765W        W16074   3.782   5.494   9.845
 8766W        W16075   8.352   5.396   0.162
 8767W        W16076   2.986   5.390   6.120
 8768W        W16077  19.373   5.578   7.780
 8769W        W16078   5.346   8.335   7.010
 8770W        W16079  17.220   9.449   0.698
 8771W        W16080   0.298   8.403   7.126
 8772W        W16081   8.772   1.585   6.988
 8773W        W16082   0.648   6.676   0.465
 8774W        W16083  11.596   9.424   6.160
 8775W        W16084  14.016   1.705   1.278
 8776W        W16085  16.315   8.399   0.295
 8777W        W16086  14.544   0.830   0.428
 8778W        W16087  13.893   1.460   0.451
 8779W        W16088   3.631   2.511   0.870
 8780W        W16089  12.151   8.916   7.331
 8781W        W16090   0.462   8.890   6.880
 8782W        W16091  19.439   1.812   8.791
 8783W        W16092  19.428   0.132   0.614
 8784W        W16093   2.328   9.730   0.876
 8785W        W16094  16.409   6.143   7.481
 8786W        W16095  11.364   9.509   9.992
 8787W        W16096  10.585   4.572   8.006
 8788W        W16097   3.691   6.568   7.728
 8789W        W16098  16.139   7.897   9.578
 8790W        W16099   0.603   2.121   8.246
 8791W        W16100  11.638   6.023   9.981
 8792W        W16101   0.599   7.988   7.139
 8793W        W16102  19.544   3.698   7.690
 8794W        W16103  10.868   1.041   7.548
 8795W        W16104  14.427   1.712   9.211
 8796W        W16105  16.858   3.943   9.476
 8797W        W16106  18.760   2.795   0.761
 8798W        W16107  17.640   7.928   0.832
 8799W        W16108  10.423   2.420   0.134
 8800W        W16109  16.429   7.371   8.842
 8801W        W16110   6.970   2.461   7.668
 8802W        W16111   6.188   5.375   7.546
 8803W        W16112  19.024   8.793   9.103
 8804W        W16113   7.949   4.443   9.287
 8805W        W16114  15.594   4.463   7.514
 8806W        W16115  13.610   1.023   9.573
 8807W        W16116  12.523   4.411   0.016
 8808W        W16117   3.725   1.770   0.209
 8809W        W16118  18.445   9.428   7.603
 8810W        W16119  13.560   8.294   8.291
 8811W        W16120   9.843   1.710   8.365
 8812W        W16121  15.472   8.155   0.120
 8813W        W16122  17.428   0.810   9.486
 8814W        W16123   7.193   3.907   9.221
 8815W        W16124  14.390   4.608   6.490
 8816W        W16125  14.913   3.783   9.663
 8817W        W16126   1.778   2.938   9.965
 8818W        W16127   5.804   1.475   7.513
 8819W        W16128  16.933   8.385   7.852
 8820W        W16129   7.183   8.820   7.393
 8821W        W16130   2.079   3.252   7.612
 8822W        W16131  19.272   5.993   9.238
 8823W        W16132  15.738   1.156   8.032
 8824W        W16133   6.598   4.040   7.635
 8825W        W16134   6.354   3.701   0.417
 8826W        W16135   5.441   3.286   6.246
 8827W        W16136   3.222   9.754   8.457
 8828W        W16137  15.126   2.268   8.866
 8829W        W16138   8.864   9.120   6.535
 8830W        W16139   1.541   2.582   0.249
 8831W        W16140   7.829   7.472   7.662
 8832W        W16141  19.926   8.567   6.837
 8833W        W16142  14.935   3.213   7.347
 8834W        W16143   2.517   2.948   9.116
 8835W        W16144  16.842   1.212   8.986
 8836W        W16145  12.528   0.968   6.732
 8837W        W16146   8.068   1.378   6.399
 8838W        W16147   4.455   3.752   8.171
 8839W        W16148   6.575   4.706   9.424
 8840W        W16149   2.506   8.409   0.748
 8841W        W16150  10.680   6.815   8.442
 8842W        W16151  16.101   7.437   8.408
 8843W        W16152   9.715   1.400   7.954
 8844W        W16153  18.337   1.623   6.847
 8845W        W16154   1.085   3.176   7.216
 8846W        W16155   8.338   6.611   7.523
 8847W        W16156   5.345   1.624   7.669
 8848W        W16157  19.370   0.599   7.450
 8849W        W16158  16.466   2.781   6.878
 8850W        W16159   3.699   6.477   7.225
 8851W        W16160  15.042   8.359   8.594
 8852W        W16161  15.757   6.242   6.161
 8853W        W16162   4.164   3.555   9.594
 8854W        W16163   4.163   1.055   8.482
 8855W        W16164   7.715   0.222   6.119
 8856W        W16165  11.212   6.652   8.774
 8857W        W16166  17.937   0.389   5.977
 8858W        W16167   1.827   3.138   9.005
 8859W        W16168   2.889   5.861   8.697
 8860W        W16169   9.940   2.565   9.899
 8861W        W16170   2.546   3.456   6.236
 8862W        W16171   7.115   1.390   7.034
 8863W        W16172  18.284   0.604   0.012
 8864W        W16173  17.194   1.714   9.487
 8865W        W16174   1.187   5.002   0.008
 8866W        W16175  11.357   1.255   0.523
 8867W        W16176  10.767   6.203   6.143
 8868W        W16177   4.260   6.369   0.737
 8869W        W16178   9.374   3.136   8.402
 8870W        W16179   7.042   8.504   0.616
 8871W        W16180   6.634   3.016   6.987
 8872W        W16181  10.765   7.331   0.749
 8873W        W16182   9.454   7.570   9.500
 8874W        W16183   7.168   9.972   0.605
 8875W        W16184   3.476   8.486   0.605
 8876W        W16185  17.964   7.127   0.651
 8877W        W16186   5.095   9.954   8.292
 8878W        W16187  17.660   8.814   7.182
 8879W        W16188  12.643   7.485   8.333
 8880W        W16189   4.453   0.257   0.101
 8881W        W16190   5.079   8.534   7.421
 8882W        W16191   5.956   3.226   7.747
 8883W        W16192   5.096   2.362   7.170
 8884W        W16193  18.382   1.818   0.470
 8885W        W16194   2.928   6.338   0.183
 8886W        W16195   3.265   8.908   9.910
 8887W        W16196  17.804   7.559   8.111
 8888W        W16197  14.111   0.590   0.347
 8889W        W16198  13.475   7.798   8.103
 8890W        W16199  13.744   4.896   0.257
 8891W        W16200   9.979   7.495   7.018
 8892W        W16201  14.755   5.478   0.027
 8893W        W16202   0.373   3.243   0.641
 8894W        W16203   7.101   5.049   0.208
 8895W        W16204  11.184   3.374   9.407
 8896W        W16205   9.402   4.389   1.053
 8897W        W16206  18.717   5.132   7.870
 8898W        W16207  12.808   2.987   7.012
 8899W        W16208   7.117   3.255   7.045
 8900W        W16209   8.990   3.453   9.287
 8901W        W16210  12.595   4.828   0.893
 8902W        W16211  19.665   7.366   9.055
 8903W        W16212  11.523   5.557   0.698
 8904W        W16213   1.375   3.604   8.446
 8905W        W16214  11.647   0.568   7.667
 8906W        W16215   1.739   2.473   8.218
 8907W        W16216  14.711   3.302   9.681
 8908W        W16217  16.206   7.025   6.236
 8909W        W16218   0.051   8.099   9.714
 8910W        W16219   5.484   9.677   6.245
 8911W        W16220  15.915   7.208   7.975
 8912W        W16221  18.688   9.865   8.134
 8913W        W16222   4.549   6.762   0.623
 8914W        W16223  10.354   8.911   8.424
 8915W        W16224   0.198   6.709   6.186
 8916W        W16225   0.855   2.251   6.454
 8917W        W16226  18.250   2.515   8.429
 8918W        W16227  17.069   8.645   9.361
 8919W        W16228   0.628   2.302   6.945
 8920W        W16229   9.065   4.331   8.002
 8921W        W16230  11.774   9.770   9.832
 8922W        W16231  12.867   0.111   6.068
 8923W        W16232  15.473   8.331   8.864
 8924W        W16233  16.798   8.906   6.226
 8925W        W16234  15.376   9.108   9.959
 8926W        W16235  17.837   6.344   8.429
 8927W        W16236  17.488   4.714   7.960
 8928W        W16237   2.020   4.455   0.184
 8929W        W16238  17.248   4.280   7.280
 8930W        W16239   0.628   7.311   8.210
 8931W        W16240   7.623   6.937   7.193
 8932W        W16241  18.385   3.498   8.208
 8933W        W16242  12.403   8.529   6.916
 8934W        W16243   5.770   6.449   9.270
 8935W        W16244  11.770   6.633   7.917
 8936W        W16245  13.997   2.038   9.160
 8937W        W16246  19.357   2.964   5.553
 8938W        W16247   5.817   3.529   8.792
 8939W        W16248   4.182   5.476   8.593
 8940W        W16249   3.168   5.449   7.161
 8941W        W16250   9.302   1.255   9.576
 8942W        W16251   1.050   8.858   7.548
 8943W        W16252   2.353   4.606   7.629
 8944W        W16253  17.967   5.410   7.468
 8945W        W16254   7.936   0.404   0.640
 8946W        W16255  15.523   4.007   6.141
 8947W        W16256  16.512   2.626   9.410
 8948W        W16257  11.467   1.396   8.138
 8949W        W16258   4.994   2.110   0.606
 8950W        W16259   9.260   2.316   8.738
 8951W        W16260   7.055   4.446   6.940
 8952W        W16261  11.295   0.512   8.424
 8953W        W16262  14.655   0.784   6.646
 8954W        W16263   6.716   1.665   9.893
 8955W        W16264   0.549   0.252   9.267
 8956W        W16265   7.431   5.792   9.381
 8957W        W16266   5.094   7.800   9.865
 8958W        W16267   9.815   3.151   8.080
 8959W        W16268   3.022   0.690   6.709
 8960W        W16269   4.730   4.142   0.526
 8961W        W16270  15.504   5.922   0.215
 8962W        W16271  14.306   8.985   7.019
 8963W        W16272   5.196   6.126   7.324
 8964W        W16273   4.672   1.743   8.278
 8965W        W16274   5.737   8.969   0.671
 8966W        W16275  19.634   1.786   7.810
 8967W        W16276   1.503   8.902   6.895
 8968W        W16277  11.895   8.293   7.604
 8969W        W16278  19.804   5.226   5.866
 8970W        W16279   9.380   2.931   7.897
 8971W        W16280  16.485   1.751   7.902
 8972W        W16281   2.542   2.182   0.107
 8973W        W16282   1.438   3.461   6.954
 8974W        W16283   9.322   3.033   9.311
 8975W        W16284   7.500   6.841   9.588
 8976W        W16285  12.825   7.406   8.814
 8977W        W16286  18.999   5.428   6.508
 8978W        W16287   7.803   6.780   8.336
 8979W        W16288  18.234   2.233   6.624
 8980W        W16289  16.323   9.654   0.208
 8981W        W16290   7.129   5.009   8.540
 8982W        W16291  13.414   9.196   9.437
 8983W        W16292   8.040   3.251   8.820
 8984W        W16293   7.398   1.830   8.812
 8985W        W16294  16.606   4.858   0.617
 8986W        W16295   7.739   3.991   8.411
 8987W        W16296  14.906   5.867   7.377
 8988W        W16297   2.599   7.043   9.727
 8989W        W16298   2.874   1.310   8.786
 8990W        W16299  10.499   9.290   7.467
 8991W        W16300   6.208   8.915   6.500
 8992W        W16301   3.714   4.526   7.297
 8993W        W16302  14.513   5.090   7.817
 8994W        W16303   7.904   8.957   0.559
 8995W        W16304  16.013   0.750   8.203
 8996W        W16305  12.679   4.428   8.982
 8997W        W16306   6.570   7.642   6.203
 8998W        W16307   7.646   4.556   9.714
 8999W        W16308   1.059   6.193   0.632
 9000W        W16309  19.653   9.278   8.582
 9001W        W16310   3.938   1.809   5.945
 9002W        W16311  11.257   6.780   0.042
 9003W        W16312   8.638   2.481   9.288
 9004W        W16313  19.509   3.254   7.412
 9005W        W16314   4.601   6.296   0.350
 9006W        W16315   8.996   4.537   9.301
 9007W        W16316   5.098   6.151   8.772
 9008W        W16317   0.890   8.928   9.184
 9009W        W16318   5.763   9.829   0.665
 9010W        W16319  15.512   2.041   9.502
 9011W        W16320  16.479   9.761   6.884
 9012W        W16321   1.550   3.805   9.737
 9013W        W16322  12.490   5.678   8.461
 9014W        W16323  16.324   0.518   7.444
 9015W        W16324  15.968   8.753   0.436
 9016W        W16325  10.609   1.876   6.756
 9017W        W16326   8.270   6.930   5.930
 9018W        W16327   9.924   5.990   7.819
 9019W        W16328  19.980   1.393   9.218
 9020W        W16329   0.734   6.490   7.872
 9021W        W16330  13.660   8.692   0.180
 9022W        W16331   8.309   7.453   6.925
 9023W        W16332   2.274   4.528   0.731
 9024W        W16333  17.897   5.467   8.825
 9025W        W16334  16.700   0.857   7.527
 9026W        W16335  18.284   9.121   9.691
 9027W        W16336   5.471   6.572   7.256
 9028W        W16337   2.731   1.389   7.402
 9029W        W16338  15.803   7.792   7.284
 9030W        W16339  12.922   9.783   0.805
 9031W        W16340   3.262   1.541   8.299
 9032W        W16341  15.823   5.509   0.298
 9033W        W16342  19.366   8.764   8.213
 9034W        W16343  10.111   1.920   6.937
 9035W        W16344  16.937   1.581   7.644
 9036W        W16345  17.690   5.064   9.108
 9037W        W16346   9.652   5.890   0.326
 9038W        W16347   2.905   1.062   8.358
 9039W        W16348  12.555   5.766   0.110
 9040W        W16349  10.171   8.153   6.198
 9041W        W16350   9.978   2.445   0.432
 9042W        W16351  19.514   1.310   6.164
 9043W        W16352   4.974   7.693   7.774
 9044W        W16353   9.220   0.758   7.320
 9045W        W16354   0.806   7.430   7.755
 9046W        W16355  10.978   6.890   9.615
 9047W        W16356   7.477   2.658   7.547
 9048W        W16357   2.416   6.379   0.168
 9049W        W16358   7.748   6.796   0.507
 9050W        W16359  19.337   1.199   7.361
 9051W        W16360   7.828   0.284   9.562
 9052W        W16361  11.868   9.668   0.712
 9053W        W16362   5.208   4.045   8.300
 9054W        W16363   6.469   5.811   6.333
 9055W        W16364   1.212   9.796   7.306
 9056W        W16365   1.286   3.907   6.182
 9057W        W16366  14.212   8.567   9.503
 9058W        W16367  11.772   8.463   6.116
 9059W        W16368   4.217   5.049   8.342
 9060W        W16369  12.179   4.797   9.908
 9061W        W16370   3.603   8.927   8.646
 9062W        W16371   3.780   8.833   8.190
 9063W        W16372  10.321   5.067   9.454
 9064W        W16373   9.848   1.954   0.541
 9065W        W16374   1.044   2.043   8.509
 9066W        W16375  12.853   8.609   8.714
 9067W        W16376  16.492   8.492   9.310
 9068W        W16377   8.091   6.977   6.936
 9069W        W16378  15.322   7.096   9.348
 9070W        W16379  17.740   1.753   9.231
 9071W        W16380  11.178   9.973   6.632
 9072W        W16381  13.207   7.984   0.377
 9073W        W16382  12.463   5.594   7.077
 9074W        W16383   3.787   5.798   8.464
 9075W        W16384   8.644   0.698   9.415
 9076W        W16385  16.344   9.561   0.729
 9077W        W16386  13.400   8.176   9.188
 9078W        W16387  19.109   2.135   9.783
 9079W        W16388   2.296   2.351   9.702
 9080W        W16389  15.774   7.953   6.330
 9081W        W16390  11.797   1.275   7.397
 9082W        W16391  19.191   0.526   9.733
 9083W        W16392  13.980   4.410   0.396
 9084W        W16393   2.196   5.240   8.649
 9085W        W16394   3.928   8.529   8.763
 9086W        W16395  16.476   8.515   5.903
 9087W        W16396  16.753   0.180   7.015
 9088W        W16397   4.711   8.917   7.548
 9089W        W16398  15.964   1.277   9.505
 9090W        W16399   0.253   3.653   7.686
 9091W        W16400   4.560   8.442   7.460
 9092W        W16401   6.388   2.101   9.596
 9093W        W16402  15.451   6.515   8.597
 9094W        W16403  10.945   1.812   0.753
 9095W        W16404   1.996   4.984   7.161
 9096W        W16405  11.181   0.972   8.171
 9097W        W16406   1.650   4.284   7.840
 9098W        W16407  10.260   9.700   8.796
 9099W        W16408   5.130   9.036   7.819
 9100W        W16409  10.656   3.352   8.615
 9101W        W16410   1.486   2.037   8.176
 9102W        W16411   1.617   3.164   7.365
 9103W        W16412   7.203   5.589   8.935
 9104W        W16413   4.680   4.047   6.397
 9105W        W16414   4.503   9.451   6.751
 9106W        W16415  15.647   5.888   1.116
 9107W        W16416   8.415   0.200   0.693
 9108W        W16417   5.445   8.270   1.040
 9109W        W16418   6.266   3.577   6.259
 9110W        W16419   7.634   8.002   9.046
 9111W        W16420   7.952   5.275   8.215
 9112W        W16421  18.626   9.372   8.078
 9113W        W16422   0.186   0.616   6.041
 9114W        W16423   0.251   3.709   9.418
 9115W        W16424  10.881   4.219   0.221
 9116W        W16425   5.970   1.524   8.004
 9117W        W16426  18.493   7.418   8.221
 9118W        W16427   6.467   8.213   9.232
 9119W        W16428  10.057   9.772   0.163
 9120W        W16429   8.520   0.244   7.032
 9121W        W16430   5.814   3.860   6.883
 9122W        W16431   1.623   2.915   6.917
 9123W        W16432  19.163   5.376   0.025
 9124W        W16433  14.829   0.600   8.018
 9125W        W16434   5.421   1.990   6.466
 9126W        W16435   1.752   5.188   8.907
 9127W        W16436   4.627   4.202   7.448
 9128W        W16437   2.011   4.311   8.711
 9129W        W16438   5.668   2.119   0.434
 9130W        W16439  17.228   4.152   8.092
 9131W        W16440   1.544   0.799   8.575
 9132W        W16441   4.789   3.080   8.589
 9133W        W16442   5.288   0.673   6.305
 9134W        W16443  10.006   6.937   7.675
 9135W        W16444   9.033   4.536   8.462
 9136W        W16445   4.581   6.266   6.215
 9137W        W16446   5.571   5.255   0.263
 9138W        W16447   8.007   6.066   0.146
 9139W        W16448   7.573   1.101   8.282
 9140W        W16449  12.428   5.533   6.576
 9141W        W16450   5.742   5.284   9.776
 9142W        W16451   6.163   8.802   0.945
 9143W        W16452  18.952   0.822   6.628
 9144W        W16453  10.720   2.408   8.558
 9145W        W16454  15.666   2.376   7.064
 9146W        W16455  11.572   0.915   9.400
 9147W        W16456  17.841   5.056   6.666
 9148W        W16457   1.357   0.418   8.296
 9149W        W16458  19.735   4.454   0.745
 9150W        W16459  17.938   0.597   6.436
 9151W        W16460   5.717   1.186   7.087
 9152W        W16461  19.841   6.062   0.485
 9153W        W16462  11.281   4.158   8.488
 9154W        W16463   7.204   1.770   9.324
 9155W        W16464   8.623   7.880   0.561
 9156W        W16465   0.343   3.681   9.929
 9157W        W16466   0.698   3.408   9.633
 9158W        W16467  17.381   9.058   9.459
 9159W        W16468  15.105   5.365   7.476
 9160W        W16469   4.746   5.069   0.082
 9161W        W16470   0.712   7.183   0.291
 9162W        W16471  19.319   8.451   7.806
 9163W        W16472   8.503   7.763   9.571
 9164W        W16473   1.426   9.312   9.865
 9165W        W16474   7.012   1.779   8.459
 9166W        W16475   5.971   2.352   8.688
 9167W        W16476   3.063   7.787   7.932
 9168W        W16477   4.334   5.189   7.371
 9169W        W16478   2.288   1.741   8.271
 9170W        W16479   1.224   2.270   9.750
 9171W        W16480   5.436   2.906   9.265
 9172W        W16481   3.114   5.908   7.802
 9173W        W16482   5.224   3.298   6.713
 9174W        W16483  14.208   2.962   6.092
 9175W        W16484   1.177   8.592   6.637
 9176W        W16485   9.733   2.988   6.319
 9177W        W16486  14.125   7.248   9.291
 9178W        W16487  17.738   0.584   0.703
 9179W        W16488   6.475   3.141   7.843
 9180W        W16489  14.084   7.703   6.389
 9181W        W16490   6.182   0.127   0.747
 9182W        W16491   1.896   0.841   1.168
 9183W        W16492   8.597   0.377   7.544
 9184W        W16493  18.088   6.866   7.607
 9185W        W16494   1.865   7.530   6.253
 9186W        W16495   4.972   1.239   6.272
 9187W        W16496  17.706   9.473   0.206
 9188W        W16497   6.171   3.239   8.222
 9189W        W16498   3.346   1.891   6.502
 9190W        W16499  19.685   9.749   8.024
 9191W        W16500  15.527   2.232   0.791
 9192W        W16501  15.239   6.979   8.526
 9193W        W16502   3.212   3.307   0.815
 9194W        W16503  19.084   1.973   8.472
 9195W        W16504  15.369   9.194   8.951
 9196W        W16505   0.411   9.835   6.650
 9197W        W16506   0.488   2.394   7.438
 9198W        W16507   1.741   6.644   8.882
 9199W        W16508  12.667   0.244   8.381
 9200W        W16509  16.314   3.128   7.726
 9201W        W16510   7.512   1.711   8.317
 9202W        W16511   6.323   1.028   8.760
 9203W        W16512   2.030   7.084   0.930
 9204W        W16513   9.525   8.640   8.632
 9205W        W16514  17.778   8.206   9.952
 9206W        W16515  14.811   9.246   7.628
 9207W        W16516  12.903   9.683   9.956
 9208W        W16517  18.653   0.162   5.884
 9209W        W16518  12.503   3.626   9.094
 9210W        W16519  18.029   7.340   8.512
 9211W        W16520   5.687   5.405   7.815
 9212W        W16521   4.281   8.790   7.211
 9213W        W16522  13.293   2.717   9.549
 9214W        W16523   4.457   5.023   9.206
 9215W        W16524  11.344   4.052   6.222
 9216W        W16525   1.405   8.866   9.188
 9217W        W16526  18.616   5.615   9.641
 9218W        W16527   5.005   2.315   6.431
 9219W        W16528   5.481   1.019   9.745
 9220W        W16529   3.189   8.895   0.401
 9221W        W16530  15.944   8.685   8.583
 9222W        W16531   4.560   5.099   8.704
 9223W        W16532   6.608   1.182   6.921
 9224W        W16533  11.965   4.491   0.588
 9225W        W16534   4.559   7.552   0.293
 9226W        W16535  15.096   1.297   9.912
 9227W        W16536   5.675   4.726   6.642
 9228W        W16537   8.233   3.492   0.146
 9229W        W16538   7.041   7.022   9.431
 9230W        W16539  13.301   3.792   6.541
 9231W        W16540   0.050   1.735   8.167
 9232W        W16541   4.983   0.988   9.650
 9233W        W16542   6.304   6.667   7.512
 9234W        W16543  18.199   2.713   6.427
 9235W        W16544   1.642   8.356   9.282
 9236W        W16545  10.662   2.500   9.278
 9237W        W16546   9.435   8.945   6.321
 9238W        W16547  18.986   4.880   9.140
 9239W        W16548  18.320   0.211   8.236
 9240W        W16549   0.872   3.915   6.493
 9241W        W16550   0.829   5.377   6.579
 9242W        W16551  11.793   9.901   8.922
 9243W        W16552   6.021   8.029   0.414
 9244W        W16553   8.643   3.456   0.440
 9245W        W16554  19.678   5.055   6.997
 9246W        W16555  10.485   5.008   0.739
 9247W        W16556  17.144   9.934   7.528
 9248W        W16557   4.978   3.715   0.766
 9249W        W16558  16.489   8.569   8.453
 9250W        W16559   3.190   7.263   7.262
 9251W        W16560  17.070   7.894   6.185
 9252W        W16561   4.135   3.386   6.250
 9253W        W16562  13.327   7.394   8.858
 9254W        W16563  14.497   4.142   8.778
 9255W        W16564   3.133   7.012   9.719
 9256W        W16565   9.393   8.592   7.582
 9257W        W16566   7.222   1.351   8.672
 9258W        W16567   7.615   0.746   0.194
 9259W        W16568  11.189   7.007   8.300
 9260W        W16569   3.189   0.367   9.652
 9261W        W16570   4.341   7.335   6.996
 9262W        W16571   1.125   1.733   0.745
 9263W        W16572  11.541   7.026   8.684
 9264W        W16573   3.047   3.382   6.236
 9265W        W16574  16.108   2.838   0.824
 9266W        W16575   2.454   7.711   7.057
 9267W        W16576  12.686   4.888   0.012
 9268W        W16577  10.355   9.020   6.348
 9269W        W16578   5.319   4.694   9.682
 9270W        W16579   1.451   6.321   0.961
 9271W        W16580   5.271   8.853   6.340
 9272W        W16581   1.350   7.928   9.318
 9273W        W16582   1.553   1.346   6.761
 9274W        W16583  12.064   9.297   5.997
 9275W        W16584  11.885   4.884   6.020
 9276W        W16585  10.233   1.256   9.913
 9277W        W16586  17.734   0.480   0.193
 9278W        W16587  15.376   3.748   9.342
 9279W        W16588  10.492   5.414   0.414
 9280W        W16589   5.819   6.503   9.790
 9281W        W16590  19.792   1.274   8.139
 9282W        W16591   8.998   2.765   9.599
 9283W        W16592  13.447   9.579   0.213
 9284W        W16593  15.682   5.888   7.919
 9285W        W16594  15.384   9.156   7.842
 9286W        W16595  13.591   7.661   0.131
 9287W        W16596   6.460   5.800   7.469
 9288W        W16597  15.227   9.853   9.759
 9289W        W16598  13.569   6.445   8.380
 9290W        W16599   7.410   3.234   6.612
 9291W        W16600   6.654   2.504   9.749
 9292W        W16601   3.180   3.818   6.468
 9293W        W16602   4.565   2.013   7.567
 9294W        W16603   2.663   7.346   0.143
 9295W        W16604  10.878   4.479   8.864
 9296W        W16605  13.057   0.817   8.338
 9297W        W16606   6.294   0.273   7.770
 9298W        W16607   1.206   9.813   8.821
 9299W        W16608  16.986   3.080   0.807
 9300W        W16609  10.692   1.892   8.542
 9301W        W16610   8.701   8.348   8.179
 9302W        W16611  14.326   9.893   9.224
 9303W        W16612  11.014   1.701   9.824
 9304W        W16613  18.523   6.725   9.013
 9305W        W16614   7.659   4.904   8.437
 9306W        W16615  13.611   3.241   6.912
 9307W        W16616  10.204   1.231   8.028
 9308W        W16617   3.871   6.759   6.344
 9309W        W16618  19.351   6.985   9.482
 9310W        W16619   9.485   0.800   9.351
 9311W        W16620  14.345   9.370   7.897
 9312W        W16621   7.614   3.266   9.625
 9313W        W16622  10.212   6.351   0.677
 9314W        W16623  10.609   0.666   7.296
 9315W        W16624  15.460   8.723   0.310
 9316W        W16625   5.568   5.531   6.450
 9317W        W16626   0.119   4.086   0.691
 9318W        W16627   1.189   9.822   9.840
 9319W        W16628   9.082   3.069   7.192
 9320W        W16629  17.610   0.380   9.242
 9321W        W16630   8.998   5.129   8.906
 9322W        W16631  13.978   7.970   7.404
 9323W        W16632   4.216   6.952   8.296
 9324W        W16633  15.080   6.270   1.001
 9325W        W16634   9.679   0.187   9.288
 9326W        W16635   2.165   8.182   6.131
 9327W        W16636  12.787   6.104   8.444
 9328W        W16637   8.974   3.680   6.408
 9329W        W16638   6.906   4.584   6.461
 9330W        W16639   8.564   3.590   8.426
 9331W        W16640  15.253   2.519   9.453
 9332W        W16641  15.625   3.674   6.890
 9333W        W16642  16.092   1.439   7.814
 9334W        W16643   2.894   2.491   7.027
 9335W        W16644   3.535   3.527   7.267
 9336W        W16645   0.158   8.213   8.470
 9337W        W16646  16.337   4.926   6.569
 9338W        W16647  17.206   6.986   8.158
 9339W        W16648  10.952   9.374   0.290
 9340W        W16649   0.029   3.008   0.894
 9341W        W16650  13.535   6.150   0.085
 9342W        W16651   6.266   7.409   9.806
 9343W        W16652  11.679   1.219   6.389
 9344W        W16653   0.362   2.753   9.469
 9345W        W16654   7.674   1.706   9.567
 9346W        W16655  18.644   5.033   8.787
 9347W        W16656  19.919   6.979   9.827
 9348W        W16657   3.350   5.175   8.943
 9349W        W16658  15.793   3.216   0.748
 9350W        W16659   2.090   8.397   6.586
 9351W        W16660  16.979   0.267   7.963
 9352W        W16661   6.111   7.047   6.680
 9353W        W16662  19.690   0.547   9.663
 9354W        W16663   5.359   8.364   8.851
 9355W        W16664  13.024   5.538   7.038
 9356W        W16665  10.335   2.085   0.513
 9357W        W16666  17.523   6.834  -0.002
 9358W        W16667   6.836   6.569   0.729
 9359W        W16668   1.582   4.820   9.736
 9360W        W16669   0.822   4.665   6.149
 9361W        W16670   0.831   8.307   6.396
 9362W        W16671   1.403   1.792   9.750
 9363W        W16672  12.477   7.920   7.601
 9364W        W16673  15.961   9.699   9.311
 9365W        W16674  11.424   2.368   7.846
 9366W        W16675  14.230   5.424   9.997
 9367W        W16676  17.410   7.881   8.229
 9368W        W16677  18.820   0.363   8.151
 9369W        W16678   8.471   2.995   0.609
 9370W        W16679  14.364   9.887   8.684
 9371W        W16680  17.211   3.330   7.292
 9372W        W16681  19.421   8.786   7.425
 9373W        W16682  14.562   6.186   9.554
 9374W        W16683   5.546   9.400   0.823
 9375W        W16684   0.284   9.358   6.971
 9376W        W16685   4.946   3.444   8.915
 9377W        W16686   4.247   9.945   0.472
 9378W        W16687   4.566   7.608   1.203
 9379W        W16688   2.987   8.622   9.164
 9380W        W16689  17.879   9.905   9.433
 9381W        W16690  13.823   6.827   8.126
 9382W        W16691  17.555   6.215   0.620
 9383W        W16692   0.944   0.787   0.341
 9384W        W16693  12.380   0.672   9.837
 9385W        W16694   4.997   2.165   9.595
 9386W        W16695  18.681   2.685   8.150
 9387W        W16696   6.455   6.901   8.873
 9388W        W16697  17.360   2.615   0.506
 9389W        W16698   5.211   6.015   9.301
 9390W        W16699   6.529   7.150   6.369
 9391W        W16700  13.381   8.806   8.184
 9392W        W16701   7.166   3.048   9.780
 9393W        W16702  15.521   3.860   5.633
 9394W        W16703  14.773   6.000   0.697
 9395W        W16704  18.637   6.470   6.724
 9396W        W16705   0.504   7.034   7.681
 9397W        W16706   6.222   4.906   5.948
 9398W        W16707  13.126   0.400   9.145
 9399W        W16708   8.975   0.138   6.779
 9400W        W16709   8.843   1.156   9.411
 9401W        W16710   2.145  10.004   8.111
 9402W        W16711  10.881   2.093   9.514
 9403W        W16712  11.292   6.617   7.763
 9404W        W16713  13.570   5.989   9.616
 9405W        W16714  13.504   3.594   0.088
 9406W        W16715   4.185   0.822   9.986
 9407W        W16716   9.284   6.483   8.827
 9408W        W16717  11.083   4.656   6.664
 9409W        W16718  14.347   1.610   0.268
 9410W        W16719   2.245   2.706   0.068
 9411W        W16720   0.146   7.217   6.224
 9412W        W16721   6.002   3.715   8.309
 9413W        W16722  19.703   6.049   8.419
 9414W        W16723   4.989   4.503   8.187
 9415W        W16724  18.031   3.527   7.083
 9416W        W16725  15.744   9.759   6.323
 9417W        W16726  17.644   7.876   7.737
 9418W        W16727  17.137   4.641   9.911
 9419W        W16728   0.351   4.096   7.928
 9420W        W16729  18.151   5.336   8.402
 9421W        W16730  16.005   2.137   8.874
 9422W        W16731  12.830   7.757   7.931
 9423W        W16732  17.750   9.386   9.678
 9424W        W16733  19.096   6.301   6.964
 9425W        W16734   0.294   8.448   7.625
 9426W        W16735   6.437   4.277   8.946
 9427W        W16736  15.838   3.139   7.944
 9428W        W16737  19.515   1.129   0.508
 9429W        W16738  11.732   1.201   8.966
 9430W        W16739  13.939   7.231   6.531
 9431W        W16740  15.993   1.843   6.185
 9432W        W16741  13.959   9.885   6.707
 9433W        W16742   9.784   5.032   9.398
 9434W        W16743   1.058   0.217   9.137
 9435W        W16744   5.190   4.102   6.196
 9436W        W16745   1.574   4.362   0.455
 9437W        W16746   8.476   1.039   9.755
 9438W        W16747  10.267   0.716   8.172
 9439W        W16748   0.890   0.343   8.115
 9440W        W16749  10.878   0.769   9.146
 9441W        W16750  19.002   4.839   8.204
 9442W        W16751  12.656   5.564   7.946
 9443W        W16752  17.254   8.792   6.661
 9444W        W16753   9.913   2.948   6.796
 9445W        W16754   6.070   8.545   8.313
 9446W        W16755   9.234   5.419   7.435
 9447W        W16756  10.111   6.023   6.841
 9448W        W16757   1.976   5.876   7.184
 9449W        W16758  13.697   4.917   9.750
 9450W        W16759  11.944   2.270   7.967
 9451W        W16760  19.085   6.041   7.829
 9452W        W16761   6.218   2.719   9.904
 9453W        W16762  11.977   9.359   6.532
 9454W        W16763   5.859   3.504   0.184
 9455W        W16764   7.554   3.584   7.498
 9456W        W16765  18.240   5.086   7.188
 9457W        W16766  15.371   7.299   6.683
 9458W        W16767  17.328   6.473   6.731
 9459W        W16768  18.551   1.227   1.435
 9460W        W16769   0.122   0.799   7.637
 9461W        W16770  15.144   8.781   8.177
 9462W        W16771  11.628   9.280   0.977
 9463W        W16772   6.019   4.965   1.052
 9464W        W16773   7.312   2.355   6.618
 9465W        W16774  15.787   2.568   0.083
 9466W        W16775   4.189   7.187   9.984
 9467W        W16776  12.010   0.798   0.253
 9468W        W16777   4.067   0.397   9.722
 9469W        W16778  19.662   2.230   9.931
 9470W        W16779  11.522   2.573   8.652
 9471W        W16780   9.232   1.464   0.803
 9472W        W16781   5.470   4.448   8.479
 9473W        W16782   1.800   6.959   9.300
 9474W        W16783  13.123   6.862   7.992
 9475W        W16784   5.195   4.749   6.824
 9476W        W16785   0.282   6.083   0.236
 9477W        W16786  14.801   7.030   0.615
 9478W        W16787  16.737   2.113   0.994
 9479W        W16788   1.576   3.111   6.437
 9480W        W16789  19.736   6.439   6.205
 9481W        W16790   5.425   6.378   0.596
 9482W        W16791  15.555   4.150   0.663
 9483W        W16792   2.460   8.681   8.386
 9484W        W16793  13.123   9.972   0.350
 9485W        W16794  11.271   7.048   9.133
 9486W        W16795   8.968   6.030   8.962
 9487W        W16796   2.337   2.949   0.737
 9488W        W16797   6.459   3.817   9.917
 9489W        W16798  11.103   4.461   7.914
 9490W        W16799  13.153   8.437   0.623
 9491W        W16800   1.288   1.110   9.205
 9492W        W16801  18.654   2.142   7.378
 9493W        W16802   5.245   7.216   6.116
 9494W        W16803  16.001   5.987   0.115
 9495W        W16804  19.512   8.389   6.468
 9496W        W16805   8.561   5.749   7.525
 9497W        W16806  19.530   5.985   6.944
 9498W        W16807   6.265   1.977   8.085
 9499W        W16808  12.799   3.216   9.093
 9500W        W16809  10.027   6.840   9.711
 9501W        W16810  12.557   1.485   6.995
 9502W        W16811  13.329   3.187   9.313
 9503W        W16812  19.968   4.993   0.130
 9504W        W16813  18.861   7.837   0.214
 9505W        W16814   5.699   0.964   7.556
 9506W        W16815  16.452   0.296   6.228
 9507W        W16816  12.709   1.504   9.252
 9508W        W16817   2.855   2.863   0.683
 9509W        W16818   8.563   3.275   8.016
 9510W        W16819   9.523   5.479   9.393
 9511W        W16820  12.994   4.215   6.588
 9512W        W16821  17.544   5.190   7.666
 9513W        W16822   0.464   6.378   9.076
 9514W        W16823   8.717   0.882   0.214
 9515W        W16824   5.573   3.448   9.607
 9516W        W16825   8.047   9.967   6.421
 9517W        W16826  17.670   9.091   7.997
 9518W        W16827  11.121   0.594   0.022
 9519W        W16828   0.318   6.870   0.147
 9520W        W16829  17.741   2.744   7.207
 9521W        W16830   3.465   2.003   7.806
 9522W        W16831   7.996   8.471   7.471
 9523W        W16832  17.371   9.357   6.937
 9524W        W16833  10.031   2.556   6.454
 9525W        W16834  10.656   7.235   8.137
 9526W        W16835  12.030   4.684   6.971
 9527W        W16836  18.242   8.919   6.855
 9528W        W16837  18.650   1.720   8.679
 9529W        W16838   0.705   9.813   9.957
 9530W        W16839  19.948   4.959   9.236
 9531W        W16840  19.136   2.059   7.084
 9532W        W16841   2.206   2.605   8.330
 9533W        W16842   3.241   2.261   8.801
 9534W        W16843   0.562   3.845   8.749
 9535W        W16844  19.649   7.867   8.927
 9536W        W16845   2.544   3.067   0.280
 9537W        W16846  14.166   8.528   8.882
 9538W        W16847  16.928   6.449   8.015
 9539W        W16848  10.022   3.937   5.791
 9540W        W16849   4.007   7.687   9.237
 9541W        W16850   5.707   1.088   9.290
 9542W        W16851  14.927   5.516   9.556
 9543W        W16852  15.560   6.154   7.147
 9544W        W16853  16.661   0.207   9.748
 9545W        W16854   4.644   9.811   8.661
 9546W        W16855  16.377   2.380   0.727
 9547W        W16856   0.579   0.390   6.973
 9548W        W16857   3.225   9.833   9.985
 9549W        W16858   1.270   4.474   7.452
 9550W        W16859   2.787   8.935   7.538
 9551W        W16860  15.804   1.670   9.768
 9552W        W16861  17.140   9.024   8.991
 9553W        W16862  15.565   4.392   8.011
 9554W        W16863  18.724   4.940   7.405
 9555W        W16864   2.337   2.455   6.271
 9556W        W16865   7.595   3.725   6.501
 9557W        W16866   3.687   9.316   9.376
 9558W        W16867   3.277   6.322   7.539
 9559W        W16868  13.592   8.044   7.063
 9560W        W16869   4.009   1.434   7.795
 9561W        W16870  12.922   1.516   6.025
 9562W        W16871   9.545   6.560   9.324
 9563W        W16872  14.116   8.013   9.610
 9564W        W16873  12.220   0.064   8.612
 9565W        W16874  10.223   4.970   0.297
 9566W        W16875   8.608   0.739   6.165
 9567W        W16876   9.575   4.273   8.835
 9568W        W16877  17.582   7.747   6.961
 9569W        W16878   4.119   4.682   9.409
 9570W        W16879   6.470   8.481   1.222
 9571W        W16880   2.204   7.279   7.267
 9572W        W16881   7.879   9.409   7.733
 9573W        W16882   8.317   8.281   6.298
 9574W        W16883  19.055   8.625   6.612
 9575W        W16884  14.858   2.439   6.284
 9576W        W16885   5.164   4.832   7.335
 9577W        W16886  13.363   2.698   8.622
 9578W        W16887  19.340   6.101   9.805
 9579W        W16888  12.949   8.399   9.158
 9580W        W16889   7.927   3.900   7.210
 9581W        W16890  16.418   7.171   8.090
 9582W        W16891   9.277   6.456   7.465
 9583W        W16892  18.020   0.211   9.822
 9584W        W16893  15.883   4.881   7.517
 9585W        W16894   2.971   5.986   7.289
 9586W        W16895  15.013   5.832   0.292
 9587W        W16896  12.320   9.433   0.467
 9588W        W16897   6.075   4.063   7.639
 9589W        W16898  10.121   4.203   7.124
 9590W        W16899  14.034   5.001   7.970
 9591W        W16900   5.445   2.463   9.538
 9592W        W16901   5.050   8.481   6.610
 9593W        W16902  10.199   4.431   7.591
 9594W        W16903  16.667   3.485   9.562
 9595W        W16904   6.738   7.495   0.032
 9596W        W16905  12.102   5.245   0.119
 9597W        W16906  14.862   2.402   6.805
 9598W        W16907   6.651   1.598   0.928
 9599W        W16908  17.439   2.028   6.412
 9600W        W16909   4.844   7.368   9.875
 9601W        W16910  16.067   4.403   7.790
 9602W        W16911   4.431   2.474   6.362
 9603W        W16912  15.604   2.277   8.122
 9604W        W16913  13.099   6.033   7.111
 9605W        W16914  18.819   0.664   9.410
 9606W        W16915  16.321   4.016   8.140
 9607W        W16916  18.656   5.366   0.106
 9608W        W16917  10.254   1.083   6.472
 9609W        W16918  12.846   7.018   8.388
 9610W        W16919   4.158   4.283   7.259
 9611W        W16920  10.495   7.793   8.020
 9612W        W16921  18.600   1.272   8.932
 9613W        W16922  16.486   8.527   6.412
 9614W        W16923   0.931   8.421   0.684
 9615W        W16924  14.088   7.818   0.088
 9616W        W16925   9.742   7.700   8.585
 9617W        W16926  15.279   1.379   7.964
 9618W        W16927  16.378   1.321   9.805
 9619W        W16928   9.291   4.707   8.883
 9620W        W16929  13.452   4.409   8.072
 9621W        W16930   2.489   0.421   9.568
 9622W        W16931   3.982   0.327   0.746
 9623W        W16932  14.847   4.592   9.178
 9624W        W16933  14.057   2.121   9.699
 9625W        W16934   6.668   7.193   7.355
 9626W        W16935  18.100   3.787   7.894
 9627W        W16936  17.513   7.741   9.459
 9628W        W16937  16.847   1.134   8.468
 9629W        W16938  12.600   3.489   8.606
 9630W        W16939   0.111   5.505   9.903
 9631W        W16940  18.565   6.013   7.855
 9632W        W16941   8.068   6.374   9.551
 9633W        W16942  15.217   0.894   7.776
 9634W        W16943  10.316   1.455   6.807
 9635W        W16944  16.830   3.466   9.072
 9636W        W16945   3.405   1.076   0.516
 9637W        W16946  18.118   0.378   9.351
 9638W        W16947  18.130   6.617   9.340
 9639W        W16948  13.743   3.231   6.029
 9640W        W16949  13.881   6.906   0.437
 9641W        W16950   4.042   7.610   0.290
 9642W        W16951   0.377   8.392   8.898
 9643W        W16952  11.435   1.513   7.643
 9644W        W16953  10.416   5.619   6.692
 9645W        W16954   7.205   5.552   7.998
 9646W        W16955   5.931   1.353   8.830
 9647W        W16956  10.805   8.774   8.178
 9648W        W16957  14.585   0.137   0.948
 9649W        W16958   7.967   8.371   9.244
 9650W        W16959   7.953   4.558   6.931
 9651W        W16960  13.626   3.987   8.279
 9652W        W16961   2.659   5.430   7.052
 9653W        W16962  11.265   7.452   7.511
 9654W        W16963   9.365   3.848   6.716
 9655W        W16964  14.959   0.825   0.139
 9656W        W16965   7.903   3.194   6.667
 9657W        W16966   7.720   8.075   9.552
 9658W        W16967   4.704   0.785   0.769
 9659W        W16968  14.145   5.179   0.441
 9660W        W16969  18.247   5.850   7.467
 9661W        W16970  15.912   4.102   6.953
 9662W        W16971   4.164   2.308   9.276
 9663W        W16972  10.386   0.327   6.665
 9664W        W16973   1.215   4.038   7.718
 9665W        W16974   8.539   9.054   9.732
 9666W        W16975  10.985   7.753   9.811
 9667W        W16976  16.702   3.684   0.041
 9668W        W16977  15.294   5.212   8.705
 9669W        W16978  16.728   0.486   0.492
 9670W        W16979  19.389   6.847   6.203
 9671W        W16980  17.282   2.180   9.720
 9672W        W16981  17.526   7.281   9.768
 9673W        W16982  17.381   0.801   8.983
 9674W        W16983  15.866   8.851   6.577
 9675W        W16984  10.614   6.170   7.514
 9676W        W16985  16.790   4.386   0.806
 9677W        W16986  11.738   6.543   8.823
 9678W        W16987   5.443   9.220   6.044
 9679W        W16988   4.748   6.037   7.050
 9680W        W16989   6.406   9.695   8.547
 9681W        W16990  15.005   5.157   7.985
 9682W        W16991   5.102   9.519   8.565
 9683W        W16992  10.172   1.784   0.928
 9684W        W16993  15.101   6.113   6.929
 9685W        W16994  16.280   4.636   5.764
 9686W        W16995   2.340   8.851   0.409
 9687W        W16996  18.835   6.961   0.828
 9688W        W16997  15.339   7.646   7.052
 9689W        W16998   7.293   8.399   9.765
 9690W        W16999   2.603   5.134   7.779
 9691W        W17000   3.890   3.147   9.770
 9692W        W17001  12.568   9.786   7.081
 9693W        W17002  10.049   5.290   9.033
 9694W        W17003  15.799   7.669   7.768
 9695W        W17004   0.874   3.007   6.277
 9696W        W17005   4.260   4.067   0.309
 9697W        W17006   3.100   2.882   6.261
 9698W        W17007   3.820   8.849   0.734
 9699ION     NA17008  15.572   6.122   8.703
 9700ION     NA17009  17.012   6.532   9.406
 9701ION     NA17010   5.792   3.075   8.790
  20.00000  10.00000  10.00000
