INSANE! Membrane UpperLeaflet>DOPC:PF10C=99.0:1.0 LowerLeaflet>DOPC:PF10C=99.0:1.0
16967
    1DOPC   NC3    1  13.633   9.111   7.622
    1DOPC   PO4    2  13.247   9.150   7.485
    1DOPC   GL1    3  13.305   9.119   7.013
    1DOPC   GL2    4  13.537   8.915   7.134
    1DOPC   C1A    5  13.230   9.124   6.538
    1DOPC   D2A    6  13.086   9.214   6.042
    1DOPC   C3A    7  13.214   9.141   5.581
    1DOPC   C4A    8  13.362   8.855   5.192
    1DOPC   C1B    9  13.673   8.565   6.870
    1DOPC   D2B   10  13.761   8.308   6.449
    1DOPC   C3B   11  13.667   8.372   5.996
    1DOPC   C4B   12  13.587   8.481   5.517
    2DOPC   NC3   13   1.613   4.429   7.517
    2DOPC   PO4   14   1.338   4.484   7.221
    2DOPC   GL1   15   1.470   4.338   6.831
    2DOPC   GL2   16   1.417   4.036   6.915
    2DOPC   C1A   17   1.542   4.328   6.372
    2DOPC   D2A   18   1.493   4.015   5.971
    2DOPC   C3A   19   1.678   4.211   5.579
    2DOPC   C4A   20   1.872   4.533   5.260
    2DOPC   C1B   21   1.519   3.844   6.503
    2DOPC   D2B   22   1.784   3.596   6.127
    2DOPC   C3B   23   1.924   3.753   5.698
    2DOPC   C4B   24   2.184   4.092   5.427
    3DOPC   NC3   25   8.003   8.126   7.205
    3DOPC   PO4   26   7.922   7.758   7.346
    3DOPC   GL1   27   7.997   7.666   6.968
    3DOPC   GL2   28   7.792   7.559   6.822
    3DOPC   C1A   29   8.089   8.023   6.708
    3DOPC   D2A   30   7.992   8.215   6.263
    3DOPC   C3A   31   8.064   8.189   5.798
    3DOPC   C4A   32   8.266   8.163   5.354
    3DOPC   C1B   33   8.053   7.586   6.460
    3DOPC   D2B   34   8.281   7.818   6.081
    3DOPC   C3B   35   8.221   7.716   5.623
    3DOPC   C4B   36   8.107   7.689   5.145
    4DOPC   NC3   37   9.514   8.044   7.583
    4DOPC   PO4   38   9.407   8.380   7.394
    4DOPC   GL1   39   9.736   8.559   7.119
    4DOPC   GL2   40   9.478   8.653   6.992
    4DOPC   C1A   41   9.970   8.611   6.730
    4DOPC   D2A   42   9.926   8.680   6.225
    4DOPC   C3A   43  10.000   8.532   5.774
    4DOPC   C4A   44  10.105   8.405   5.297
    4DOPC   C1B   45   9.503   8.753   6.564
    4DOPC   D2B   46   9.405   8.674   6.080
    4DOPC   C3B   47   9.570   8.825   5.674
    4DOPC   C4B   48   9.528   9.053   5.240
    5DOPC   NC3   49  18.014   8.039   7.514
    5DOPC   PO4   50  18.129   7.725   7.279
    5DOPC   GL1   51  17.959   7.861   6.913
    5DOPC   GL2   52  17.988   8.157   6.988
    5DOPC   C1A   53  18.077   7.743   6.505
    5DOPC   D2A   54  17.979   7.544   6.051
    5DOPC   C3A   55  18.013   7.678   5.592
    5DOPC   C4A   56  17.937   7.847   5.125
    5DOPC   C1B   57  17.838   8.426   6.639
    5DOPC   D2B   58  17.694   8.608   6.188
    5DOPC   C3B   59  17.767   8.557   5.726
    5DOPC   C4B   60  17.859   8.381   5.270
    6DOPC   NC3   61  13.238   9.667   7.473
    6DOPC   PO4   62  13.135   9.808   7.109
    6DOPC   GL1   63  13.271   9.544   6.769
    6DOPC   GL2   64  12.998   9.401   6.821
    6DOPC   C1A   65  13.398   9.574   6.314
    6DOPC   D2A   66  13.443   9.545   5.800
    6DOPC   C3A   67  13.513   9.594   5.323
    6DOPC   C4A   68  13.527   9.552   4.821
    6DOPC   C1B   69  12.912   9.532   6.406
    6DOPC   D2B   70  12.987   9.722   5.949
    6DOPC   C3B   71  13.021   9.634   5.484
    6DOPC   C4B   72  13.127   9.337   5.097
    7DOPC   NC3   73  19.564   9.954   7.301
    7DOPC   PO4   74  19.464   0.306   7.135
    7DOPC   GL1   75  19.444   0.125   6.794
    7DOPC   GL2   76  19.281   9.872   6.910
    7DOPC   C1A   77  19.621   0.093   6.373
    7DOPC   D2A   78  19.653   9.967   5.873
    7DOPC   C3A   79  19.529   9.911   5.407
    7DOPC   C4A   80  19.364   9.789   4.958
    7DOPC   C1B   81  19.485   9.662   6.603
    7DOPC   D2B   82  19.663   9.507   6.153
    7DOPC   C3B   83  19.689   9.505   5.678
    7DOPC   C4B   84  19.759   9.488   5.187
    8DOPC   NC3   85  10.930   6.165   7.239
    8DOPC   PO4   86  10.974   5.762   7.258
    8DOPC   GL1   87  11.169   5.533   6.979
    8DOPC   GL2   88  11.466   5.510   7.072
    8DOPC   C1A   89  11.097   5.648   6.551
    8DOPC   D2A   90  11.009   5.760   6.066
    8DOPC   C3A   91  11.150   5.854   5.619
    8DOPC   C4A   92  11.457   5.856   5.210
    8DOPC   C1B   93  11.691   5.488   6.690
    8DOPC   D2B   94  11.780   5.534   6.179
    8DOPC   C3B   95  11.637   5.837   5.821
    8DOPC   C4B   96  11.509   6.241   5.536
    9DOPC   NC3   97  12.096   9.213   7.182
    9DOPC   PO4   98  12.046   8.814   7.254
    9DOPC   GL1   99  11.753   8.722   6.911
    9DOPC   GL2  100  11.814   9.004   6.878
    9DOPC   C1A  101  11.854   8.602   6.510
    9DOPC   D2A  102  12.056   8.416   6.097
    9DOPC   C3A  103  12.042   8.601   5.666
    9DOPC   C4A  104  12.129   8.699   5.199
    9DOPC   C1B  105  12.121   9.130   6.607
    9DOPC   D2B  106  12.069   9.089   6.110
    9DOPC   C3B  107  11.946   9.099   5.649
    9DOPC   C4B  108  11.682   8.925   5.253
   10DOPC   NC3  109   1.762   9.045   7.385
   10DOPC   PO4  110   1.505   8.755   7.273
   10DOPC   GL1  111   1.749   8.796   6.913
   10DOPC   GL2  112   1.754   9.098   6.929
   10DOPC   C1A  113   1.692   8.812   6.476
   10DOPC   D2A  114   1.546   8.746   5.994
   10DOPC   C3A  115   1.502   8.425   5.638
   10DOPC   C4A  116   1.649   8.138   5.242
   10DOPC   C1B  117   1.909   9.308   6.557
   10DOPC   D2B  118   2.124   9.519   6.150
   10DOPC   C3B  119   2.204   9.426   5.694
   10DOPC   C4B  120   2.510   9.243   5.356
   11DOPC   NC3  121  12.277   9.880   7.530
   11DOPC   PO4  122  12.291   9.684   7.176
   11DOPC   GL1  123  12.045   9.536   6.822
   11DOPC   GL2  124  11.818   9.677   6.935
   11DOPC   C1A  125  12.007   9.548   6.353
   11DOPC   D2A  126  12.176   9.534   5.869
   11DOPC   C3A  127  12.202   9.612   5.405
   11DOPC   C4A  128  12.279   9.601   4.905
   11DOPC   C1B  129  11.645   9.850   6.552
   11DOPC   D2B  130  11.474   9.930   6.090
   11DOPC   C3B  131  11.705   9.771   5.715
   11DOPC   C4B  132  11.706   9.446   5.351
   12DOPC   NC3  133   0.506   0.731   7.357
   12DOPC   PO4  134   0.274   0.406   7.316
   12DOPC   GL1  135   0.231   0.537   6.929
   12DOPC   GL2  136   0.548   0.545   6.893
   12DOPC   C1A  137   0.074   0.389   6.544
   12DOPC   D2A  138  19.925   0.362   6.063
   12DOPC   C3A  139   0.191   0.461   5.699
   12DOPC   C4A  140   0.249   0.377   5.223
   12DOPC   C1B  141   0.665   0.543   6.446
   12DOPC   D2B  142   0.738   0.569   5.930
   12DOPC   C3B  143   0.670   0.565   5.454
   12DOPC   C4B  144   0.692   0.545   4.948
   13DOPC   NC3  145  17.491   6.457   7.442
   13DOPC   PO4  146  17.784   6.329   7.200
   13DOPC   GL1  147  17.762   6.621   6.839
   13DOPC   GL2  148  17.474   6.659   6.942
   13DOPC   C1A  149  17.636   6.634   6.400
   13DOPC   D2A  150  17.521   6.627   5.912
   13DOPC   C3A  151  17.626   6.553   5.452
   13DOPC   C4A  152  17.574   6.506   4.950
   13DOPC   C1B  153  17.157   6.664   6.605
   13DOPC   D2B  154  16.786   6.535   6.278
   13DOPC   C3B  155  16.962   6.575   5.843
   13DOPC   C4B  156  17.133   6.610   5.374
   14DOPC   NC3  157   2.560   2.503   7.426
   14DOPC   PO4  158   2.478   2.793   7.157
   14DOPC   GL1  159   2.384   2.614   6.774
   14DOPC   GL2  160   2.682   2.635   6.757
   14DOPC   C1A  161   2.329   2.374   6.414
   14DOPC   D2A  162   2.465   2.275   5.957
   14DOPC   C3A  163   2.528   2.522   5.563
   14DOPC   C4A  164   2.629   2.848   5.195
   14DOPC   C1B  165   2.820   2.439   6.393
   14DOPC   D2B  166   3.016   2.298   5.957
   14DOPC   C3B  167   3.043   2.608   5.611
   14DOPC   C4B  168   3.134   3.008   5.345
   15DOPC   NC3  169   0.320   8.714   7.400
   15DOPC   PO4  170   0.690   8.774   7.257
   15DOPC   GL1  171   0.688   8.691   6.814
   15DOPC   GL2  172   0.378   8.700   6.912
   15DOPC   C1A  173   0.691   8.786   6.350
   15DOPC   D2A  174   0.573   8.774   5.834
   15DOPC   C3A  175   0.558   8.603   5.375
   15DOPC   C4A  176   0.609   8.529   4.876
   15DOPC   C1B  177   0.270   8.582   6.519
   15DOPC   D2B  178   0.211   8.479   6.041
   15DOPC   C3B  179   0.121   8.672   5.632
   15DOPC   C4B  180   0.085   8.810   5.163
   16DOPC   NC3  181  12.435   6.741   7.503
   16DOPC   PO4  182  12.809   6.875   7.572
   16DOPC   GL1  183  12.708   6.917   7.151
   16DOPC   GL2  184  12.935   6.790   7.056
   16DOPC   C1A  185  12.504   7.067   6.783
   16DOPC   D2A  186  12.594   7.108   6.286
   16DOPC   C3A  187  12.471   7.069   5.830
   16DOPC   C4A  188  12.372   6.900   5.370
   16DOPC   C1B  189  12.916   6.808   6.621
   16DOPC   D2B  190  12.775   6.659   6.140
   16DOPC   C3B  191  12.901   6.670   5.683
   16DOPC   C4B  192  13.012   6.584   5.205
   17DOPC   NC3  193   3.021   9.366   6.874
   17DOPC   PO4  194   3.053   9.765   6.877
   17DOPC   GL1  195   3.212   9.767   6.478
   17DOPC   GL2  196   3.368   9.515   6.583
   17DOPC   C1A  197   3.319   9.671   6.072
   17DOPC   D2A  198   3.411   9.308   5.758
   17DOPC   C3A  199   3.356   9.245   5.313
   17DOPC   C4A  200   3.270   9.183   4.845
   17DOPC   C1B  201   3.587   9.262   6.274
   17DOPC   D2B  202   3.781   8.959   5.914
   17DOPC   C3B  203   3.784   9.009   5.449
   17DOPC   C4B  204   3.754   9.124   4.967
   18DOPC   NC3  205   2.269   0.159   7.172
   18DOPC   PO4  206   2.626   9.993   7.100
   18DOPC   GL1  207   2.624   9.953   6.714
   18DOPC   GL2  208   2.855   0.050   6.567
   18DOPC   C1A  209   2.369   9.917   6.369
   18DOPC   D2A  210   2.354   9.882   5.866
   18DOPC   C3A  211   2.527   9.770   5.435
   18DOPC   C4A  212   2.446   9.575   4.981
   18DOPC   C1B  213   2.846   9.865   6.132
   18DOPC   D2B  214   2.978   9.645   5.664
   18DOPC   C3B  215   2.932   9.505   5.197
   18DOPC   C4B  216   2.802   9.303   4.742
   19DOPC   NC3  217  12.304   8.889   7.698
   19DOPC   PO4  218  12.530   8.970   7.368
   19DOPC   GL1  219  12.376   8.917   6.921
   19DOPC   GL2  220  12.492   9.227   6.934
   19DOPC   C1A  221  12.382   8.734   6.464
   19DOPC   D2A  222  12.418   8.780   5.945
   19DOPC   C3A  223  12.424   8.966   5.485
   19DOPC   C4A  224  12.474   8.985   4.951
   19DOPC   C1B  225  12.727   9.080   6.599
   19DOPC   D2B  226  12.866   8.774   6.216
   19DOPC   C3B  227  12.868   8.814   5.740
   19DOPC   C4B  228  12.868   8.912   5.255
   20DOPC   NC3  229  12.035   3.016   7.452
   20DOPC   PO4  230  12.351   2.856   7.288
   20DOPC   GL1  231  12.176   2.899   6.947
   20DOPC   GL2  232  11.877   2.892   7.009
   20DOPC   C1A  233  12.340   2.948   6.547
   20DOPC   D2A  234  12.571   3.208   6.186
   20DOPC   C3A  235  12.373   2.939   5.854
   20DOPC   C4A  236  12.240   2.609   5.501
   20DOPC   C1B  237  11.749   2.805   6.585
   20DOPC   D2B  238  11.730   2.716   6.094
   20DOPC   C3B  239  11.753   2.822   5.630
   20DOPC   C4B  240  11.737   2.977   5.160
   21DOPC   NC3  241  16.485   2.464   7.215
   21DOPC   PO4  242  16.180   2.598   7.008
   21DOPC   GL1  243  16.438   2.390   6.686
   21DOPC   GL2  244  16.642   2.605   6.785
   21DOPC   C1A  245  16.489   2.394   6.221
   21DOPC   D2A  246  16.461   2.486   5.717
   21DOPC   C3A  247  16.290   2.854   5.467
   21DOPC   C4A  248  16.187   3.338   5.399
   21DOPC   C1B  249  16.532   2.854   6.437
   21DOPC   D2B  250  16.540   2.937   5.941
   21DOPC   C3B  251  16.800   2.842   5.547
   21DOPC   C4B  252  17.075   2.897   5.125
   22DOPC   NC3  253  10.175   5.577   7.344
   22DOPC   PO4  254  10.530   5.486   7.521
   22DOPC   GL1  255  10.785   5.341   7.170
   22DOPC   GL2  256  10.592   5.562   7.047
   22DOPC   C1A  257  10.891   5.222   6.748
   22DOPC   D2A  258  10.898   5.253   6.237
   22DOPC   C3A  259  10.838   5.373   5.781
   22DOPC   C4A  260  10.722   5.332   5.301
   22DOPC   C1B  261  10.559   5.605   6.606
   22DOPC   D2B  262  10.507   5.635   6.114
   22DOPC   C3B  263  10.352   5.549   5.677
   22DOPC   C4B  264  10.204   5.435   5.220
   23DOPC   NC3  265   0.274   3.175   7.572
   23DOPC   PO4  266   0.636   3.146   7.392
   23DOPC   GL1  267   0.614   3.125   6.979
   23DOPC   GL2  268   0.802   2.903   6.912
   23DOPC   C1A  269   0.414   3.196   6.597
   23DOPC   D2A  270   0.347   3.062   6.143
   23DOPC   C3A  271   0.411   3.119   5.690
   23DOPC   C4A  272   0.343   3.266   5.227
   23DOPC   C1B  273   0.714   2.824   6.461
   23DOPC   D2B  274   0.703   2.729   5.961
   23DOPC   C3B  275   0.542   2.639   5.522
   23DOPC   C4B  276   0.343   2.774   5.080
   24DOPC   NC3  277  12.713   7.329   7.368
   24DOPC   PO4  278  13.087   7.205   7.274
   24DOPC   GL1  279  12.963   7.212   6.901
   24DOPC   GL2  280  12.757   7.424   6.904
   24DOPC   C1A  281  13.021   7.274   6.498
   24DOPC   D2A  282  13.101   7.019   6.099
   24DOPC   C3A  283  12.970   7.167   5.693
   24DOPC   C4A  284  12.839   7.061   5.240
   24DOPC   C1B  285  12.612   7.564   6.486
   24DOPC   D2B  286  12.700   7.546   5.970
   24DOPC   C3B  287  12.605   7.452   5.500
   24DOPC   C4B  288  12.565   7.425   4.998
   25DOPC   NC3  289   5.479   0.366   7.053
   25DOPC   PO4  290   5.813   0.154   7.158
   25DOPC   GL1  291   6.036   0.079   6.778
   25DOPC   GL2  292   5.843   0.283   6.634
   25DOPC   C1A  293   6.231   9.793   6.466
   25DOPC   D2A  294   6.409   9.550   6.045
   25DOPC   C3A  295   6.338   9.588   5.577
   25DOPC   C4A  296   6.177   9.668   5.104
   25DOPC   C1B  297   5.978   0.161   6.211
   25DOPC   D2B  298   5.947   9.952   5.742
   25DOPC   C3B  299   5.755   9.836   5.316
   25DOPC   C4B  300   5.674   9.514   4.933
   26DOPC   NC3  301   4.954   3.096   7.478
   26DOPC   PO4  302   5.081   3.185   7.111
   26DOPC   GL1  303   5.327   2.926   6.871
   26DOPC   GL2  304   5.576   3.063   7.023
   26DOPC   C1A  305   5.366   3.029   6.440
   26DOPC   D2A  306   5.526   3.235   6.014
   26DOPC   C3A  307   5.314   3.197   5.588
   26DOPC   C4A  308   5.066   3.152   5.153
   26DOPC   C1B  309   5.672   3.389   6.716
   26DOPC   D2B  310   5.718   3.651   6.270
   26DOPC   C3B  311   5.558   3.690   5.807
   26DOPC   C4B  312   5.301   3.674   5.365
   27DOPC   NC3  313   1.570   9.658   7.409
   27DOPC   PO4  314   1.859   9.515   7.184
   27DOPC   GL1  315   1.578   9.482   6.857
   27DOPC   GL2  316   1.729   9.714   6.738
   27DOPC   C1A  317   1.386   9.278   6.503
   27DOPC   D2A  318   1.312   9.226   6.003
   27DOPC   C3A  319   1.586   9.310   5.620
   27DOPC   C4A  320   1.906   9.441   5.259
   27DOPC   C1B  321   1.675   9.707   6.283
   27DOPC   D2B  322   1.838   9.775   5.793
   27DOPC   C3B  323   2.044   9.923   5.384
   27DOPC   C4B  324   2.348   0.058   5.008
   28DOPC   NC3  325  11.286   7.263   7.533
   28DOPC   PO4  326  11.329   7.658   7.517
   28DOPC   GL1  327  11.174   7.682   7.108
   28DOPC   GL2  328  11.209   7.399   7.072
   28DOPC   C1A  329  11.240   7.884   6.718
   28DOPC   D2A  330  11.259   7.712   6.237
   28DOPC   C3A  331  11.158   7.435   5.844
   28DOPC   C4A  332  11.065   7.170   5.420
   28DOPC   C1B  333  11.491   7.441   6.739
   28DOPC   D2B  334  11.735   7.537   6.326
   28DOPC   C3B  335  11.668   7.452   5.871
   28DOPC   C4B  336  11.583   7.278   5.413
   29DOPC   NC3  337  12.575   0.250   7.317
   29DOPC   PO4  338  12.464   0.568   7.117
   29DOPC   GL1  339  12.451   0.317   6.752
   29DOPC   GL2  340  12.732   0.397   6.779
   29DOPC   C1A  341  12.422   0.293   6.295
   29DOPC   D2A  342  12.541   0.371   5.823
   29DOPC   C3A  343  12.454   0.386   5.360
   29DOPC   C4A  344  12.429   0.357   4.856
   29DOPC   C1B  345  12.690   0.709   6.466
   29DOPC   D2B  346  12.799   0.812   5.983
   29DOPC   C3B  347  12.891   0.640   5.548
   29DOPC   C4B  348  12.935   0.298   5.192
   30DOPC   NC3  349   1.194   0.388   7.309
   30DOPC   PO4  350   0.795   0.308   7.286
   30DOPC   GL1  351   0.961   0.119   6.907
   30DOPC   GL2  352   0.998   0.431   6.871
   30DOPC   C1A  353   0.958   0.103   6.457
   30DOPC   D2A  354   1.019   0.146   5.960
   30DOPC   C3A  355   1.097   0.047   5.506
   30DOPC   C4A  356   1.082   9.848   5.055
   30DOPC   C1B  357   1.166   0.584   6.494
   30DOPC   D2B  358   1.277   0.639   6.019
   30DOPC   C3B  359   1.168   0.549   5.580
   30DOPC   C4B  360   1.150   0.385   5.111
   31DOPC   NC3  361  17.759   9.650   7.491
   31DOPC   PO4  362  18.136   9.681   7.350
   31DOPC   GL1  363  18.360   9.360   7.135
   31DOPC   GL2  364  18.086   9.247   7.060
   31DOPC   C1A  365  18.446   9.542   6.748
   31DOPC   D2A  366  18.408   9.661   6.263
   31DOPC   C3A  367  18.318   9.526   5.817
   31DOPC   C4A  368  18.113   9.328   5.408
   31DOPC   C1B  369  17.975   9.412   6.640
   31DOPC   D2B  370  17.895   9.642   6.188
   31DOPC   C3B  371  17.823   9.663   5.711
   31DOPC   C4B  372  17.862   9.714   5.208
   32DOPC   NC3  373  17.867   2.653   7.157
   32DOPC   PO4  374  17.961   2.260   7.115
   32DOPC   GL1  375  17.675   2.242   6.795
   32DOPC   GL2  376  17.791   2.514   6.705
   32DOPC   C1A  377  17.862   2.092   6.435
   32DOPC   D2A  378  18.157   1.941   6.063
   32DOPC   C3A  379  18.117   2.125   5.637
   32DOPC   C4A  380  17.921   2.388   5.257
   32DOPC   C1B  381  17.960   2.557   6.276
   32DOPC   D2B  382  17.973   2.584   5.774
   32DOPC   C3B  383  18.205   2.797   5.425
   32DOPC   C4B  384  18.489   3.080   5.122
   33DOPC   NC3  385  10.487   1.209   7.345
   33DOPC   PO4  386  10.688   1.512   7.185
   33DOPC   GL1  387  10.415   1.590   6.905
   33DOPC   GL2  388  10.238   1.340   6.958
   33DOPC   C1A  389  10.457   1.539   6.474
   33DOPC   D2A  390  10.514   1.462   5.977
   33DOPC   C3A  391  10.511   1.433   5.502
   33DOPC   C4A  392  10.558   1.512   5.004
   33DOPC   C1B  393  10.147   1.139   6.568
   33DOPC   D2B  394  10.136   1.127   6.060
   33DOPC   C3B  395  10.105   1.037   5.594
   33DOPC   C4B  396   9.866   1.001   5.168
   34DOPC   NC3  397  17.656   4.292   7.462
   34DOPC   PO4  398  17.481   4.565   7.223
   34DOPC   GL1  399  17.279   4.291   6.906
   34DOPC   GL2  400  17.550   4.164   6.952
   34DOPC   C1A  401  17.324   4.068   6.521
   34DOPC   D2A  402  17.559   4.148   6.095
   34DOPC   C3A  403  17.418   4.008   5.679
   34DOPC   C4A  404  17.275   3.858   5.236
   34DOPC   C1B  405  17.769   4.299   6.566
   34DOPC   D2B  406  18.004   4.411   6.118
   34DOPC   C3B  407  18.070   4.508   5.646
   34DOPC   C4B  408  18.113   4.706   5.179
   35DOPC   NC3  409   4.496   6.586   7.401
   35DOPC   PO4  410   4.264   6.555   7.081
   35DOPC   GL1  411   4.000   6.301   6.890
   35DOPC   GL2  412   3.797   6.523   6.832
   35DOPC   C1A  413   4.216   6.271   6.507
   35DOPC   D2A  414   4.424   6.094   6.079
   35DOPC   C3A  415   4.365   6.312   5.682
   35DOPC   C4A  416   4.295   6.463   5.225
   35DOPC   C1B  417   3.977   6.706   6.457
   35DOPC   D2B  418   4.378   6.607   6.144
   35DOPC   C3B  419   4.524   6.784   5.736
   35DOPC   C4B  420   4.170   6.911   5.424
   36DOPC   NC3  421   5.272   1.445   7.496
   36DOPC   PO4  422   4.903   1.545   7.381
   36DOPC   GL1  423   5.009   1.664   6.984
   36DOPC   GL2  424   5.205   1.850   7.068
   36DOPC   C1A  425   4.930   1.730   6.547
   36DOPC   D2A  426   4.861   1.860   6.073
   36DOPC   C3A  427   5.215   1.773   5.755
   36DOPC   C4A  428   5.499   1.709   5.346
   36DOPC   C1B  429   5.292   2.054   6.683
   36DOPC   D2B  430   5.287   2.165   6.187
   36DOPC   C3B  431   5.040   2.249   5.800
   36DOPC   C4B  432   4.819   1.932   5.481
   37DOPC   NC3  433   4.364   9.818   7.590
   37DOPC   PO4  434   4.516   9.643   7.264
   37DOPC   GL1  435   4.237   9.597   6.922
   37DOPC   GL2  436   4.140   9.880   7.018
   37DOPC   C1A  437   4.121   9.432   6.503
   37DOPC   D2A  438   4.190   9.244   6.038
   37DOPC   C3A  439   4.143   9.360   5.581
   37DOPC   C4A  440   4.063   9.526   5.117
   37DOPC   C1B  441   4.169   9.932   6.593
   37DOPC   D2B  442   4.130   9.897   6.094
   37DOPC   C3B  443   4.141   9.900   5.603
   37DOPC   C4B  444   4.301   9.990   5.132
   38DOPC   NC3  445   5.263   6.727   7.078
   38DOPC   PO4  446   4.900   6.557   7.130
   38DOPC   GL1  447   4.824   6.675   6.726
   38DOPC   GL2  448   5.066   6.486   6.695
   38DOPC   C1A  449   4.869   6.755   6.283
   38DOPC   D2A  450   5.048   6.846   5.831
   38DOPC   C3A  451   4.912   6.595   5.454
   38DOPC   C4A  452   5.117   6.319   5.108
   38DOPC   C1B  453   5.372   6.708   6.484
   38DOPC   D2B  454   5.661   6.784   6.076
   38DOPC   C3B  455   5.548   6.767   5.620
   38DOPC   C4B  456   5.284   6.858   5.213
   39DOPC   NC3  457   1.832   0.496   7.770
   39DOPC   PO4  458   1.847   0.382   7.382
   39DOPC   GL1  459   1.827  10.000   7.119
   39DOPC   GL2  460   1.525   0.052   7.162
   39DOPC   C1A  461   1.934   0.118   6.679
   39DOPC   D2A  462   1.949   0.122   6.168
   39DOPC   C3A  463   2.035   0.289   5.734
   39DOPC   C4A  464   2.127   0.436   5.262
   39DOPC   C1B  465   1.422   0.226   6.776
   39DOPC   D2B  466   1.427   0.153   6.275
   39DOPC   C3B  467   1.521   0.207   5.814
   39DOPC   C4B  468   1.618   0.326   5.344
   40DOPC   NC3  469   8.898   9.232   7.228
   40DOPC   PO4  470   8.619   8.940   7.161
   40DOPC   GL1  471   8.790   9.005   6.825
   40DOPC   GL2  472   9.056   8.914   6.784
   40DOPC   C1A  473   8.688   9.234   6.486
   40DOPC   D2A  474   8.691   9.181   5.998
   40DOPC   C3A  475   8.693   9.349   5.560
   40DOPC   C4A  476   8.744   9.512   5.093
   40DOPC   C1B  477   9.105   8.984   6.334
   40DOPC   D2B  478   9.162   9.077   5.830
   40DOPC   C3B  479   9.196   9.450   5.528
   40DOPC   C4B  480   9.145   9.882   5.258
   41DOPC   NC3  481   9.139   1.392   7.650
   41DOPC   PO4  482   9.114   1.231   7.286
   41DOPC   GL1  483   9.336   1.433   6.959
   41DOPC   GL2  484   9.270   1.168   6.798
   41DOPC   C1A  485   9.275   1.581   6.548
   41DOPC   D2A  486   9.188   1.714   6.082
   41DOPC   C3A  487   9.123   1.511   5.668
   41DOPC   C4A  488   9.036   1.342   5.209
   41DOPC   C1B  489   8.941   1.221   6.485
   41DOPC   D2B  490   8.767   1.350   6.031
   41DOPC   C3B  491   8.747   1.150   5.604
   41DOPC   C4B  492   8.699   0.940   5.155
   42DOPC   NC3  493  13.823   0.997   7.263
   42DOPC   PO4  494  13.449   0.910   7.149
   42DOPC   GL1  495  13.481   1.135   6.799
   42DOPC   GL2  496  13.230   1.302   6.806
   42DOPC   C1A  497  13.613   1.154   6.375
   42DOPC   D2A  498  13.636   1.027   5.886
   42DOPC   C3A  499  13.657   0.965   5.408
   42DOPC   C4A  500  13.699   0.880   4.911
   42DOPC   C1B  501  13.273   1.536   6.429
   42DOPC   D2B  502  13.499   1.535   5.973
   42DOPC   C3B  503  13.468   1.455   5.506
   42DOPC   C4B  504  13.395   1.269   5.046
   43DOPC   NC3  505  18.875   7.037   7.171
   43DOPC   PO4  506  18.643   6.860   7.436
   43DOPC   GL1  507  18.512   6.752   7.055
   43DOPC   GL2  508  18.774   6.601   7.012
   43DOPC   C1A  509  18.600   6.901   6.652
   43DOPC   D2A  510  18.640   6.778   6.176
   43DOPC   C3A  511  18.558   6.790   5.716
   43DOPC   C4A  512  18.483   6.817   5.231
   43DOPC   C1B  513  19.098   6.750   6.730
   43DOPC   D2B  514  19.192   6.712   6.223
   43DOPC   C3B  515  19.234   6.576   5.771
   43DOPC   C4B  516  19.256   6.341   5.334
   44DOPC   NC3  517  16.808   9.531   7.537
   44DOPC   PO4  518  16.880   9.465   7.149
   44DOPC   GL1  519  16.639   9.253   6.832
   44DOPC   GL2  520  16.792   8.984   6.928
   44DOPC   C1A  521  16.524   9.174   6.391
   44DOPC   D2A  522  16.489   9.118   5.888
   44DOPC   C3A  523  16.580   9.366   5.489
   44DOPC   C4A  524  16.643   9.240   5.014
   44DOPC   C1B  525  16.867   8.675   6.596
   44DOPC   D2B  526  16.778   8.390   6.175
   44DOPC   C3B  527  16.726   8.596   5.746
   44DOPC   C4B  528  16.542   8.870   5.379
   45DOPC   NC3  529   1.612   3.288   7.243
   45DOPC   PO4  530   1.603   2.895   7.169
   45DOPC   GL1  531   1.665   3.005   6.740
   45DOPC   GL2  532   1.831   3.228   6.811
   45DOPC   C1A  533   1.653   3.100   6.291
   45DOPC   D2A  534   1.813   3.138   5.826
   45DOPC   C3A  535   1.823   3.311   5.390
   45DOPC   C4A  536   1.870   3.532   4.947
   45DOPC   C1B  537   2.090   3.296   6.451
   45DOPC   D2B  538   2.305   3.197   6.009
   45DOPC   C3B  539   2.304   3.402   5.582
   45DOPC   C4B  540   2.330   3.675   5.164
   46DOPC   NC3  541  14.413   2.673   7.329
   46DOPC   PO4  542  14.127   2.447   7.165
   46DOPC   GL1  543  14.121   2.508   6.742
   46DOPC   GL2  544  14.080   2.816   6.779
   46DOPC   C1A  545  14.038   2.394   6.315
   46DOPC   D2A  546  14.237   2.451   5.852
   46DOPC   C3A  547  14.354   2.576   5.402
   46DOPC   C4A  548  14.386   2.916   5.041
   46DOPC   C1B  549  13.894   2.885   6.367
   46DOPC   D2B  550  13.902   2.839   5.857
   46DOPC   C3B  551  14.198   3.058   5.543
   46DOPC   C4B  552  14.548   3.333   5.305
   47DOPC   NC3  553  19.952   3.626   7.467
   47DOPC   PO4  554  19.846   3.264   7.330
   47DOPC   GL1  555   0.180   3.026   7.101
   47DOPC   GL2  556   0.048   3.198   6.867
   47DOPC   C1A  557   0.317   2.737   6.783
   47DOPC   D2A  558   0.293   2.571   6.293
   47DOPC   C3A  559   0.148   2.697   5.851
   47DOPC   C4A  560  19.972   2.966   5.465
   47DOPC   C1B  561  19.961   2.974   6.485
   47DOPC   D2B  562  19.747   2.661   6.160
   47DOPC   C3B  563  19.597   2.672   5.713
   47DOPC   C4B  564  19.521   2.822   5.248
   48DOPC   NC3  565   7.291   3.011   7.389
   48DOPC   PO4  566   7.426   3.246   7.099
   48DOPC   GL1  567   7.452   3.241   6.667
   48DOPC   GL2  568   7.762   3.236   6.735
   48DOPC   C1A  569   7.584   3.128   6.261
   48DOPC   D2A  570   7.898   2.953   5.925
   48DOPC   C3A  571   7.917   2.791   5.495
   48DOPC   C4A  572   8.084   2.683   5.049
   48DOPC   C1B  573   7.995   2.933   6.480
   48DOPC   D2B  574   8.213   2.566   6.199
   48DOPC   C3B  575   8.061   2.411   5.784
   48DOPC   C4B  576   8.004   2.248   5.310
   49DOPC   NC3  577   7.771   5.311   7.234
   49DOPC   PO4  578   8.081   5.579   7.211
   49DOPC   GL1  579   8.097   5.631   6.784
   49DOPC   GL2  580   7.780   5.598   6.793
   49DOPC   C1A  581   8.279   5.681   6.362
   49DOPC   D2A  582   8.485   5.799   5.911
   49DOPC   C3A  583   8.516   5.640   5.447
   49DOPC   C4A  584   8.517   5.505   4.960
   49DOPC   C1B  585   7.623   5.612   6.372
   49DOPC   D2B  586   7.648   5.583   5.872
   49DOPC   C3B  587   7.875   5.313   5.549
   49DOPC   C4B  588   8.281   5.161   5.278
   50DOPC   NC3  589  10.600   3.900   7.900
   50DOPC   PO4  590  10.629   3.954   7.497
   50DOPC   GL1  591  10.696   3.807   7.056
   50DOPC   GL2  592  10.800   4.115   7.064
   50DOPC   C1A  593  10.707   3.752   6.599
   50DOPC   D2A  594  10.820   3.659   6.100
   50DOPC   C3A  595  10.527   3.657   5.710
   50DOPC   C4A  596  10.114   3.651   5.406
   50DOPC   C1B  597  10.861   4.309   6.673
   50DOPC   D2B  598  11.066   4.394   6.224
   50DOPC   C3B  599  10.857   4.645   5.882
   50DOPC   C4B  600  11.032   4.954   5.535
   51DOPC   NC3  601   6.069   6.084   7.474
   51DOPC   PO4  602   6.430   5.924   7.401
   51DOPC   GL1  603   6.204   5.847   7.071
   51DOPC   GL2  604   6.052   6.094   7.009
   51DOPC   C1A  605   6.263   5.754   6.665
   51DOPC   D2A  606   6.317   5.610   6.206
   51DOPC   C3A  607   6.277   5.711   5.766
   51DOPC   C4A  608   6.116   5.751   5.313
   51DOPC   C1B  609   5.800   5.943   6.663
   51DOPC   D2B  610   5.873   5.886   6.171
   51DOPC   C3B  611   5.802   5.885   5.695
   51DOPC   C4B  612   5.630   5.872   5.220
   52DOPC   NC3  613   1.084   2.749   7.286
   52DOPC   PO4  614   1.125   3.139   7.208
   52DOPC   GL1  615   1.226   3.024   6.831
   52DOPC   GL2  616   1.285   2.740   6.869
   52DOPC   C1A  617   1.173   2.996   6.389
   52DOPC   D2A  618   1.286   3.000   5.899
   52DOPC   C3A  619   1.088   2.970   5.472
   52DOPC   C4A  620   0.855   2.703   5.122
   52DOPC   C1B  621   1.503   2.653   6.505
   52DOPC   D2B  622   1.688   2.659   6.051
   52DOPC   C3B  623   1.596   2.712   5.600
   52DOPC   C4B  624   1.382   2.626   5.180
   53DOPC   NC3  625  12.069   0.780   7.367
   53DOPC   PO4  626  11.717   0.638   7.225
   53DOPC   GL1  627  11.838   0.780   6.848
   53DOPC   GL2  628  12.135   0.850   6.923
   53DOPC   C1A  629  11.820   1.001   6.455
   53DOPC   D2A  630  11.844   1.342   6.078
   53DOPC   C3A  631  11.727   1.235   5.624
   53DOPC   C4A  632  11.677   0.928   5.237
   53DOPC   C1B  633  12.318   1.054   6.577
   53DOPC   D2B  634  12.381   1.317   6.157
   53DOPC   C3B  635  12.213   1.293   5.714
   53DOPC   C4B  636  12.101   1.220   5.230
   54DOPC   NC3  637  17.927   1.155   7.342
   54DOPC   PO4  638  17.625   0.964   7.172
   54DOPC   GL1  639  17.828   0.921   6.781
   54DOPC   GL2  640  18.015   1.162   6.860
   54DOPC   C1A  641  17.966   0.758   6.378
   54DOPC   D2A  642  18.049   0.591   5.912
   54DOPC   C3A  643  18.009   0.848   5.524
   54DOPC   C4A  644  17.845   0.844   5.051
   54DOPC   C1B  645  18.271   1.145   6.478
   54DOPC   D2B  646  18.357   0.984   5.995
   54DOPC   C3B  647  18.326   1.254   5.602
   54DOPC   C4B  648  18.357   1.573   5.209
   55DOPC   NC3  649   4.771   0.526   7.381
   55DOPC   PO4  650   4.588   0.798   7.158
   55DOPC   GL1  651   4.735   0.513   6.892
   55DOPC   GL2  652   5.031   0.590   6.923
   55DOPC   C1A  653   4.674   0.504   6.464
   55DOPC   D2A  654   4.509   0.545   5.989
   55DOPC   C3A  655   4.519   0.349   5.561
   55DOPC   C4A  656   4.677   0.333   5.085
   55DOPC   C1B  657   5.351   0.583   6.582
   55DOPC   D2B  658   5.749   0.605   6.244
   55DOPC   C3B  659   5.871   0.462   5.802
   55DOPC   C4B  660   5.908   0.333   5.320
   56DOPC   NC3  661  14.870   8.132   7.059
   56DOPC   PO4  662  15.210   8.281   7.197
   56DOPC   GL1  663  15.463   8.014   7.013
   56DOPC   GL2  664  15.220   7.850   6.906
   56DOPC   C1A  665  15.509   8.196   6.619
   56DOPC   D2A  666  15.444   8.214   6.133
   56DOPC   C3A  667  15.548   7.907   5.791
   56DOPC   C4A  668  15.725   7.600   5.446
   56DOPC   C1B  669  15.086   7.965   6.483
   56DOPC   D2B  670  15.033   7.968   5.978
   56DOPC   C3B  671  15.016   7.845   5.530
   56DOPC   C4B  672  14.928   7.837   5.051
   57DOPC   NC3  673  17.229   2.134   7.367
   57DOPC   PO4  674  17.523   1.962   7.162
   57DOPC   GL1  675  17.236   2.117   6.866
   57DOPC   GL2  676  17.070   1.858   6.916
   57DOPC   C1A  677  17.350   2.174   6.437
   57DOPC   D2A  678  17.595   2.240   5.991
   57DOPC   C3A  679  17.560   2.125   5.526
   57DOPC   C4A  680  17.592   2.025   5.030
   57DOPC   C1B  681  17.009   1.638   6.524
   57DOPC   D2B  682  16.955   1.504   6.030
   57DOPC   C3B  683  17.166   1.777   5.690
   57DOPC   C4B  684  17.132   1.986   5.232
   58DOPC   NC3  685  19.070   3.756   7.330
   58DOPC   PO4  686  19.274   4.054   7.143
   58DOPC   GL1  687  19.551   3.872   6.831
   58DOPC   GL2  688  19.331   3.660   6.812
   58DOPC   C1A  689  19.685   3.809   6.408
   58DOPC   D2A  690  19.593   3.639   5.946
   58DOPC   C3A  691  19.365   3.726   5.541
   58DOPC   C4A  692  19.120   3.834   5.118
   58DOPC   C1B  693  19.245   3.548   6.370
   58DOPC   D2B  694  19.108   3.419   5.892
   58DOPC   C3B  695  18.923   3.437   5.442
   58DOPC   C4B  696  18.820   3.445   4.943
   59DOPC   NC3  697  18.574   5.989   7.539
   59DOPC   PO4  698  18.767   6.213   7.262
   59DOPC   GL1  699  19.074   6.227   6.950
   59DOPC   GL2  700  19.036   5.929   6.857
   59DOPC   C1A  701  19.017   6.310   6.526
   59DOPC   D2A  702  18.897   6.324   6.053
   59DOPC   C3A  703  18.873   6.145   5.622
   59DOPC   C4A  704  18.831   6.037   5.136
   59DOPC   C1B  705  19.085   5.822   6.391
   59DOPC   D2B  706  19.232   5.741   5.898
   59DOPC   C3B  707  19.259   5.828   5.421
   59DOPC   C4B  708  19.340   5.999   4.950
   60DOPC   NC3  709  15.121   1.999   7.461
   60DOPC   PO4  710  15.176   1.673   7.242
   60DOPC   GL1  711  15.366   1.891   6.893
   60DOPC   GL2  712  15.199   2.119   7.020
   60DOPC   C1A  713  15.287   2.040   6.472
   60DOPC   D2A  714  15.197   2.186   5.993
   60DOPC   C3A  715  15.219   2.053   5.535
   60DOPC   C4A  716  15.474   1.962   5.124
   60DOPC   C1B  717  14.857   2.023   6.767
   60DOPC   D2B  718  14.796   1.898   6.294
   60DOPC   C3B  719  14.816   1.895   5.832
   60DOPC   C4B  720  14.838   1.678   5.394
   61DOPC   NC3  721   8.063   3.638   7.590
   61DOPC   PO4  722   8.121   3.903   7.279
   61DOPC   GL1  723   8.049   3.908   6.827
   61DOPC   GL2  724   8.156   3.611   6.844
   61DOPC   C1A  725   8.168   3.875   6.394
   61DOPC   D2A  726   8.457   3.637   6.038
   61DOPC   C3A  727   8.574   3.863   5.631
   61DOPC   C4A  728   8.788   4.255   5.393
   61DOPC   C1B  729   8.528   3.558   6.574
   61DOPC   D2B  730   8.958   3.713   6.344
   61DOPC   C3B  731   8.999   3.771   5.881
   61DOPC   C4B  732   9.056   3.815   5.378
   62DOPC   NC3  733  15.534   7.249   7.462
   62DOPC   PO4  734  15.371   7.557   7.250
   62DOPC   GL1  735  15.056   7.443   7.030
   62DOPC   GL2  736  14.869   7.651   7.143
   62DOPC   C1A  737  15.135   7.480   6.602
   62DOPC   D2A  738  15.339   7.620   6.174
   62DOPC   C3A  739  15.294   7.471   5.725
   62DOPC   C4A  740  15.254   7.461   5.227
   62DOPC   C1B  741  14.710   7.747   6.743
   62DOPC   D2B  742  14.679   7.737   6.258
   62DOPC   C3B  743  14.791   7.535   5.861
   62DOPC   C4B  744  14.698   7.212   5.510
   63DOPC   NC3  745   4.188   7.330   7.128
   63DOPC   PO4  746   4.164   6.985   7.332
   63DOPC   GL1  747   4.061   6.936   6.891
   63DOPC   GL2  748   3.785   6.947   6.954
   63DOPC   C1A  749   4.090   7.204   6.521
   63DOPC   D2A  750   4.022   7.316   6.027
   63DOPC   C3A  751   3.871   7.289   5.575
   63DOPC   C4A  752   3.882   7.167   5.094
   63DOPC   C1B  753   3.596   7.065   6.571
   63DOPC   D2B  754   3.362   7.189   6.143
   63DOPC   C3B  755   3.367   7.289   5.686
   63DOPC   C4B  756   3.437   7.384   5.203
   64DOPC   NC3  757  11.280   8.492   7.522
   64DOPC   PO4  758  10.902   8.442   7.396
   64DOPC   GL1  759  11.029   8.333   7.006
   64DOPC   GL2  760  11.291   8.502   7.037
   64DOPC   C1A  761  10.918   8.275   6.569
   64DOPC   D2A  762  10.926   8.191   6.065
   64DOPC   C3A  763  11.005   8.302   5.602
   64DOPC   C4A  764  11.124   8.477   5.142
   64DOPC   C1B  765  11.410   8.378   6.645
   64DOPC   D2B  766  11.439   8.250   6.146
   64DOPC   C3B  767  11.329   7.934   5.788
   64DOPC   C4B  768  11.252   7.665   5.371
   65DOPC   NC3  769   1.437   1.495   7.473
   65DOPC   PO4  770   1.624   1.780   7.267
   65DOPC   GL1  771   1.355   1.740   6.926
   65DOPC   GL2  772   1.344   1.433   6.995
   65DOPC   C1A  773   1.484   1.715   6.496
   65DOPC   D2A  774   1.596   1.782   6.006
   65DOPC   C3A  775   1.625   1.640   5.550
   65DOPC   C4A  776   1.747   1.416   5.120
   65DOPC   C1B  777   1.311   1.238   6.597
   65DOPC   D2B  778   1.391   1.280   6.099
   65DOPC   C3B  779   1.350   1.054   5.690
   65DOPC   C4B  780   1.356   0.880   5.226
   66DOPC   NC3  781   7.744   3.624   7.090
   66DOPC   PO4  782   7.622   3.996   6.997
   66DOPC   GL1  783   7.652   3.925   6.570
   66DOPC   GL2  784   7.785   3.649   6.588
   66DOPC   C1A  785   7.709   3.948   6.133
   66DOPC   D2A  786   8.028   3.822   5.765
   66DOPC   C3A  787   8.194   3.673   5.349
   66DOPC   C4A  788   8.341   3.490   4.915
   66DOPC   C1B  789   7.953   3.468   6.175
   66DOPC   D2B  790   8.187   3.320   5.728
   66DOPC   C3B  791   8.168   3.166   5.268
   66DOPC   C4B  792   8.030   3.106   4.777
   67DOPC   NC3  793   0.217   7.861   6.871
   67DOPC   PO4  794  19.890   7.790   7.098
   67DOPC   GL1  795  19.753   7.830   6.749
   67DOPC   GL2  796  19.517   7.990   6.763
   67DOPC   C1A  797  19.988   7.798   6.375
   67DOPC   D2A  798   0.062   7.568   5.922
   67DOPC   C3A  799  19.941   7.780   5.505
   67DOPC   C4A  800  19.759   8.073   5.146
   67DOPC   C1B  801  19.485   7.926   6.346
   67DOPC   D2B  802  19.724   7.972   5.920
   67DOPC   C3B  803  19.467   8.107   5.547
   67DOPC   C4B  804  19.240   8.077   5.091
   68DOPC   NC3  805   0.432   6.648   7.465
   68DOPC   PO4  806   0.067   6.534   7.330
   68DOPC   GL1  807  19.982   6.860   7.048
   68DOPC   GL2  808   0.297   6.917   7.054
   68DOPC   C1A  809  19.978   6.838   6.614
   68DOPC   D2A  810   0.210   6.694   6.181
   68DOPC   C3A  811   0.187   6.572   5.716
   68DOPC   C4A  812   0.174   6.389   5.253
   68DOPC   C1B  813   0.495   6.753   6.673
   68DOPC   D2B  814   0.755   6.650   6.238
   68DOPC   C3B  815   0.887   6.638   5.793
   68DOPC   C4B  816   0.887   6.337   5.413
   69DOPC   NC3  817  14.931   6.376   7.245
   69DOPC   PO4  818  14.577   6.269   7.083
   69DOPC   GL1  819  14.494   6.164   6.637
   69DOPC   GL2  820  14.599   5.884   6.729
   69DOPC   C1A  821  14.498   6.078   6.191
   69DOPC   D2A  822  14.622   6.069   5.701
   69DOPC   C3A  823  14.620   5.990   5.229
   69DOPC   C4A  824  14.530   5.909   4.732
   69DOPC   C1B  825  14.766   5.668   6.376
   69DOPC   D2B  826  14.910   5.676   5.899
   69DOPC   C3B  827  14.691   5.539   5.515
   69DOPC   C4B  828  14.433   5.530   5.093
   70DOPC   NC3  829   2.021   2.684   7.359
   70DOPC   PO4  830   2.167   2.392   7.121
   70DOPC   GL1  831   1.969   2.725   6.895
   70DOPC   GL2  832   1.738   2.543   6.899
   70DOPC   C1A  833   2.005   2.786   6.459
   70DOPC   D2A  834   2.186   2.711   5.983
   70DOPC   C3A  835   2.176   2.899   5.534
   70DOPC   C4A  836   2.215   3.147   5.087
   70DOPC   C1B  837   1.857   2.322   6.552
   70DOPC   D2B  838   1.951   2.218   6.074
   70DOPC   C3B  839   1.998   2.386   5.633
   70DOPC   C4B  840   1.927   2.517   5.161
   71DOPC   NC3  841  12.814   9.387   7.278
   71DOPC   PO4  842  12.738   9.754   7.438
   71DOPC   GL1  843  12.679   9.943   7.005
   71DOPC   GL2  844  12.676   9.663   6.933
   71DOPC   C1A  845  12.704   9.975   6.570
   71DOPC   D2A  846  12.525   9.810   6.132
   71DOPC   C3A  847  12.584   9.869   5.663
   71DOPC   C4A  848  12.629   9.890   5.170
   71DOPC   C1B  849  12.454   9.524   6.576
   71DOPC   D2B  850  12.543   9.259   6.161
   71DOPC   C3B  851  12.667   9.343   5.726
   71DOPC   C4B  852  12.631   9.379   5.236
   72DOPC   NC3  853  16.701   3.406   7.752
   72DOPC   PO4  854  16.809   3.332   7.373
   72DOPC   GL1  855  16.587   3.476   7.033
   72DOPC   GL2  856  16.665   3.772   7.092
   72DOPC   C1A  857  16.641   3.476   6.592
   72DOPC   D2A  858  16.783   3.426   6.104
   72DOPC   C3A  859  16.666   3.343   5.638
   72DOPC   C4A  860  16.592   3.140   5.174
   72DOPC   C1B  861  16.488   3.973   6.710
   72DOPC   D2B  862  16.367   3.818   6.233
   72DOPC   C3B  863  16.272   3.775   5.754
   72DOPC   C4B  864  16.052   3.817   5.307
   73DOPC   NC3  865   4.074   6.176   7.344
   73DOPC   PO4  866   4.038   5.863   7.114
   73DOPC   GL1  867   4.271   5.909   6.795
   73DOPC   GL2  868   4.519   5.789   6.882
   73DOPC   C1A  869   4.157   5.813   6.371
   73DOPC   D2A  870   4.017   5.845   5.869
   73DOPC   C3A  871   4.134   5.941   5.415
   73DOPC   C4A  872   4.293   6.019   4.947
   73DOPC   C1B  873   4.694   5.786   6.492
   73DOPC   D2B  874   4.863   5.789   6.033
   73DOPC   C3B  875   4.595   5.863   5.664
   73DOPC   C4B  876   4.670   6.137   5.267
   74DOPC   NC3  877   5.137   7.357   7.481
   74DOPC   PO4  878   5.337   7.512   7.164
   74DOPC   GL1  879   5.457   7.359   6.804
   74DOPC   GL2  880   5.296   7.109   6.784
   74DOPC   C1A  881   5.375   7.592   6.439
   74DOPC   D2A  882   5.234   7.734   5.993
   74DOPC   C3A  883   5.123   7.630   5.546
   74DOPC   C4A  884   5.138   7.367   5.122
   74DOPC   C1B  885   5.093   7.180   6.383
   74DOPC   D2B  886   4.904   7.342   5.940
   74DOPC   C3B  887   4.847   7.182   5.502
   74DOPC   C4B  888   4.805   6.984   5.058
   75DOPC   NC3  889   2.836   6.604   7.471
   75DOPC   PO4  890   2.467   6.463   7.493
   75DOPC   GL1  891   2.383   6.414   7.042
   75DOPC   GL2  892   2.582   6.653   7.052
   75DOPC   C1A  893   2.468   6.270   6.622
   75DOPC   D2A  894   2.676   6.350   6.165
   75DOPC   C3A  895   2.682   6.335   5.676
   75DOPC   C4A  896   2.759   6.409   5.192
   75DOPC   C1B  897   2.867   6.577   6.722
   75DOPC   D2B  898   3.132   6.349   6.382
   75DOPC   C3B  899   3.142   6.422   5.915
   75DOPC   C4B  900   3.225   6.493   5.427
   76DOPC   NC3  901   8.089   1.171   7.360
   76DOPC   PO4  902   7.960   1.548   7.353
   76DOPC   GL1  903   7.789   1.476   6.985
   76DOPC   GL2  904   7.765   1.182   6.986
   76DOPC   C1A  905   8.090   1.511   6.658
   76DOPC   D2A  906   8.337   1.572   6.231
   76DOPC   C3A  907   8.254   1.504   5.778
   76DOPC   C4A  908   8.310   1.250   5.357
   76DOPC   C1B  909   7.912   1.040   6.606
   76DOPC   D2B  910   8.055   1.140   6.140
   76DOPC   C3B  911   8.013   1.005   5.696
   76DOPC   C4B  912   8.248   0.728   5.355
   77DOPC   NC3  913   1.984   6.397   7.522
   77DOPC   PO4  914   1.938   6.286   7.146
   77DOPC   GL1  915   1.610   6.431   6.880
   77DOPC   GL2  916   1.808   6.674   6.869
   77DOPC   C1A  917   1.579   6.202   6.488
   77DOPC   D2A  918   1.846   6.013   6.103
   77DOPC   C3A  919   1.854   6.180   5.658
   77DOPC   C4A  920   1.820   6.465   5.258
   77DOPC   C1B  921   2.006   6.469   6.509
   77DOPC   D2B  922   2.183   6.394   6.040
   77DOPC   C3B  923   2.206   6.578   5.608
   77DOPC   C4B  924   2.288   6.679   5.126
   78DOPC   NC3  925   7.915   6.400   7.229
   78DOPC   PO4  926   8.264   6.505   7.408
   78DOPC   GL1  927   8.290   6.593   7.017
   78DOPC   GL2  928   8.081   6.825   7.020
   78DOPC   C1A  929   8.208   6.368   6.674
   78DOPC   D2A  930   7.873   6.421   6.306
   78DOPC   C3A  931   7.778   6.448   5.869
   78DOPC   C4A  932   7.627   6.499   5.412
   78DOPC   C1B  933   8.044   6.821   6.567
   78DOPC   D2B  934   8.068   6.867   6.064
   78DOPC   C3B  935   8.032   6.806   5.597
   78DOPC   C4B  936   8.065   6.630   5.131
   79DOPC   NC3  937  10.956   9.157   6.776
   79DOPC   PO4  938  11.060   9.385   7.088
   79DOPC   GL1  939  10.946   9.644   6.774
   79DOPC   GL2  940  10.679   9.675   6.903
   79DOPC   C1A  941  10.801   9.495   6.367
   79DOPC   D2A  942  10.532   9.487   5.934
   79DOPC   C3A  943  10.666   9.777   5.579
   79DOPC   C4A  944  10.947   0.062   5.266
   79DOPC   C1B  945  10.360   9.526   6.611
   79DOPC   D2B  946  10.060   9.478   6.200
   79DOPC   C3B  947  10.067   9.768   5.832
   79DOPC   C4B  948  10.166   0.029   5.428
   80DOPC   NC3  949   3.875   0.691   7.171
   80DOPC   PO4  950   4.001   1.054   7.285
   80DOPC   GL1  951   4.076   1.243   6.875
   80DOPC   GL2  952   4.228   0.971   6.843
   80DOPC   C1A  953   4.273   1.433   6.500
   80DOPC   D2A  954   4.387   1.583   6.021
   80DOPC   C3A  955   4.353   1.406   5.587
   80DOPC   C4A  956   4.248   1.211   5.144
   80DOPC   C1B  957   4.359   0.921   6.409
   80DOPC   D2B  958   4.522   1.054   5.950
   80DOPC   C3B  959   4.705   1.027   5.521
   80DOPC   C4B  960   4.748   1.059   5.032
   81DOPC   NC3  961   9.384   5.856   7.282
   81DOPC   PO4  962   9.738   5.914   7.472
   81DOPC   GL1  963   9.780   6.001   7.060
   81DOPC   GL2  964   9.758   5.676   7.020
   81DOPC   C1A  965   9.643   5.974   6.649
   81DOPC   D2A  966   9.644   5.958   6.144
   81DOPC   C3A  967   9.723   5.839   5.693
   81DOPC   C4A  968   9.769   5.720   5.226
   81DOPC   C1B  969   9.835   5.516   6.581
   81DOPC   D2B  970   9.942   5.510   6.068
   81DOPC   C3B  971   9.855   5.360   5.612
   81DOPC   C4B  972   9.718   5.215   5.144
   82DOPC   NC3  973  13.051   1.485   7.440
   82DOPC   PO4  974  13.008   1.174   7.188
   82DOPC   GL1  975  12.691   1.413   6.995
   82DOPC   GL2  976  12.928   1.617   6.954
   82DOPC   C1A  977  12.412   1.565   6.665
   82DOPC   D2A  978  12.330   1.843   6.248
   82DOPC   C3A  979  12.454   1.734   5.803
   82DOPC   C4A  980  12.499   1.527   5.341
   82DOPC   C1B  981  12.851   1.816   6.556
   82DOPC   D2B  982  12.811   2.038   6.100
   82DOPC   C3B  983  12.956   2.158   5.661
   82DOPC   C4B  984  13.171   2.379   5.261
   83DOPC   NC3  985   6.274   3.094   7.678
   83DOPC   PO4  986   6.307   2.819   7.389
   83DOPC   GL1  987   6.470   3.025   7.070
   83DOPC   GL2  988   6.716   2.854   7.027
   83DOPC   C1A  989   6.317   2.845   6.704
   83DOPC   D2A  990   6.329   2.680   6.233
   83DOPC   C3A  991   6.307   2.845   5.790
   83DOPC   C4A  992   6.404   2.919   5.317
   83DOPC   C1B  993   6.816   2.762   6.576
   83DOPC   D2B  994   6.800   2.818   6.061
   83DOPC   C3B  995   6.805   2.751   5.592
   83DOPC   C4B  996   6.788   2.647   5.108
   84DOPC   NC3  997   7.091   8.805   7.531
   84DOPC   PO4  998   7.085   8.860   7.137
   84DOPC   GL1  999   7.205   8.654   6.770
   84DOPC   GL2 1000   7.485   8.644   6.854
   84DOPC   C1A 1001   7.213   8.754   6.327
   84DOPC   D2A 1002   7.308   8.876   5.861
   84DOPC   C3A 1003   7.237   8.979   5.406
   84DOPC   C4A 1004   7.221   9.142   4.924
   84DOPC   C1B 1005   7.704   8.619   6.473
   84DOPC   D2B 1006   7.793   8.596   5.985
   84DOPC   C3B 1007   7.679   8.701   5.554
   84DOPC   C4B 1008   7.627   8.800   5.085
   85DOPC   NC3 1009   1.904   5.421   7.397
   85DOPC   PO4 1010   2.269   5.476   7.234
   85DOPC   GL1 1011   2.072   5.486   6.835
   85DOPC   GL2 1012   1.842   5.313   6.938
   85DOPC   C1A 1013   2.070   5.468   6.385
   85DOPC   D2A 1014   2.075   5.235   5.952
   85DOPC   C3A 1015   2.226   5.264   5.515
   85DOPC   C4A 1016   2.522   5.437   5.170
   85DOPC   C1B 1017   1.740   5.113   6.550
   85DOPC   D2B 1018   1.613   5.041   6.063
   85DOPC   C3B 1019   1.680   5.171   5.606
   85DOPC   C4B 1020   1.903   5.042   5.176
   86DOPC   NC3 1021  13.629   4.859   7.758
   86DOPC   PO4 1022  13.742   5.126   7.475
   86DOPC   GL1 1023  13.788   5.221   7.014
   86DOPC   GL2 1024  14.091   5.206   7.114
   86DOPC   C1A 1025  13.912   5.155   6.579
   86DOPC   D2A 1026  14.054   5.017   6.106
   86DOPC   C3A 1027  14.075   5.020   5.632
   86DOPC   C4A 1028  14.144   5.119   5.146
   86DOPC   C1B 1029  14.375   5.241   6.773
   86DOPC   D2B 1030  14.524   5.198   6.291
   86DOPC   C3B 1031  14.544   5.105   5.827
   86DOPC   C4B 1032  14.623   5.041   5.339
   87DOPC   NC3 1033  15.610   6.655   7.455
   87DOPC   PO4 1034  15.258   6.756   7.293
   87DOPC   GL1 1035  15.355   7.090   7.049
   87DOPC   GL2 1036  15.669   6.969   7.079
   87DOPC   C1A 1037  15.145   6.964   6.661
   87DOPC   D2A 1038  15.068   6.704   6.228
   87DOPC   C3A 1039  15.222   6.614   5.774
   87DOPC   C4A 1040  15.437   6.598   5.309
   87DOPC   C1B 1041  16.010   6.965   6.749
   87DOPC   D2B 1042  16.323   6.805   6.353
   87DOPC   C3B 1043  16.387   6.577   5.911
   87DOPC   C4B 1044  16.415   6.396   5.423
   88DOPC   NC3 1045  13.230   6.674   7.385
   88DOPC   PO4 1046  13.582   6.507   7.290
   88DOPC   GL1 1047  13.654   6.706   6.944
   88DOPC   GL2 1048  13.338   6.677   6.879
   88DOPC   C1A 1049  13.894   6.798   6.575
   88DOPC   D2A 1050  14.062   6.883   6.103
   88DOPC   C3A 1051  13.789   6.811   5.747
   88DOPC   C4A 1052  13.484   6.672   5.379
   88DOPC   C1B 1053  13.336   6.645   6.423
   88DOPC   D2B 1054  13.344   6.580   5.928
   88DOPC   C3B 1055  13.272   6.265   5.579
   88DOPC   C4B 1056  13.203   6.104   5.112
   89DOPC   NC3 1057  14.091   3.905   7.336
   89DOPC   PO4 1058  13.753   3.697   7.238
   89DOPC   GL1 1059  13.753   3.739   6.814
   89DOPC   GL2 1060  13.963   3.972   6.856
   89DOPC   C1A 1061  13.701   3.882   6.413
   89DOPC   D2A 1062  13.760   4.164   6.033
   89DOPC   C3A 1063  13.982   4.165   5.631
   89DOPC   C4A 1064  14.170   4.193   5.179
   89DOPC   C1B 1065  14.095   4.204   6.476
   89DOPC   D2B 1066  14.224   4.466   6.059
   89DOPC   C3B 1067  14.327   4.561   5.599
   89DOPC   C4B 1068  14.376   4.650   5.104
   90DOPC   NC3 1069  15.519   3.494   7.444
   90DOPC   PO4 1070  15.802   3.230   7.327
   90DOPC   GL1 1071  15.773   3.415   6.941
   90DOPC   GL2 1072  15.686   3.690   7.050
   90DOPC   C1A 1073  15.956   3.547   6.554
   90DOPC   D2A 1074  15.880   3.746   6.102
   90DOPC   C3A 1075  15.797   3.542   5.686
   90DOPC   C4A 1076  15.685   3.257   5.298
   90DOPC   C1B 1077  15.625   3.927   6.678
   90DOPC   D2B 1078  15.488   4.060   6.206
   90DOPC   C3B 1079  15.496   3.947   5.739
   90DOPC   C4B 1080  15.486   3.742   5.278
   91DOPC   NC3 1081   6.742   6.323   7.329
   91DOPC   PO4 1082   6.363   6.395   7.209
   91DOPC   GL1 1083   6.560   6.261   6.864
   91DOPC   GL2 1084   6.625   5.984   6.982
   91DOPC   C1A 1085   6.634   6.080   6.483
   91DOPC   D2A 1086   6.715   5.890   6.046
   91DOPC   C3A 1087   6.705   5.950   5.598
   91DOPC   C4A 1088   6.526   6.018   5.150
   91DOPC   C1B 1089   6.736   5.626   6.700
   91DOPC   D2B 1090   6.788   5.422   6.259
   91DOPC   C3B 1091   6.737   5.437   5.787
   91DOPC   C4B 1092   6.581   5.512   5.321
   92DOPC   NC3 1093   9.781   0.711   7.306
   92DOPC   PO4 1094   9.528   0.948   7.113
   92DOPC   GL1 1095   9.732   0.923   6.734
   92DOPC   GL2 1096   9.983   0.873   6.910
   92DOPC   C1A 1097   9.789   0.825   6.295
   92DOPC   D2A 1098   9.556   0.667   5.885
   92DOPC   C3A 1099   9.609   0.632   5.422
   92DOPC   C4A 1100   9.691   0.551   4.940
   92DOPC   C1B 1101   9.978   0.513   6.646
   92DOPC   D2B 1102   9.950   0.288   6.175
   92DOPC   C3B 1103   9.825   0.253   5.710
   92DOPC   C4B 1104   9.679   0.133   5.239
   93DOPC   NC3 1105  11.211   0.835   7.304
   93DOPC   PO4 1106  10.870   0.984   7.130
   93DOPC   GL1 1107  10.626   1.169   6.777
   93DOPC   GL2 1108  10.829   1.392   6.752
   93DOPC   C1A 1109  10.596   1.063   6.324
   93DOPC   D2A 1110  10.606   0.985   5.810
   93DOPC   C3A 1111  10.890   1.106   5.429
   93DOPC   C4A 1112  11.064   1.339   5.016
   93DOPC   C1B 1113  10.930   1.442   6.304
   93DOPC   D2B 1114  11.009   1.486   5.801
   93DOPC   C3B 1115  11.316   1.475   5.440
   93DOPC   C4B 1116  11.636   1.408   5.062
   94DOPC   NC3 1117  12.794   4.015   7.368
   94DOPC   PO4 1118  13.075   4.193   7.160
   94DOPC   GL1 1119  12.876   3.860   6.902
   94DOPC   GL2 1120  12.632   4.053   6.929
   94DOPC   C1A 1121  12.840   3.764   6.456
   94DOPC   D2A 1122  12.781   3.655   5.979
   94DOPC   C3A 1123  13.019   3.913   5.661
   94DOPC   C4A 1124  13.050   4.226   5.282
   94DOPC   C1B 1125  12.694   4.239   6.532
   94DOPC   D2B 1126  12.769   4.170   6.037
   94DOPC   C3B 1127  12.592   4.217   5.591
   94DOPC   C4B 1128  12.432   4.368   5.139
   95DOPC   NC3 1129  19.792   4.097   7.163
   95DOPC   PO4 1130   0.161   3.952   7.135
   95DOPC   GL1 1131   0.095   3.669   6.787
   95DOPC   GL2 1132  19.855   3.585   6.973
   95DOPC   C1A 1133   0.063   3.476   6.366
   95DOPC   D2A 1134  19.981   3.311   5.891
   95DOPC   C3A 1135  19.814   3.485   5.482
   95DOPC   C4A 1136  19.618   3.724   5.089
   95DOPC   C1B 1137  19.652   3.356   6.641
   95DOPC   D2B 1138  19.568   3.164   6.165
   95DOPC   C3B 1139  19.487   3.171   5.682
   95DOPC   C4B 1140  19.343   3.297   5.210
   96DOPC   NC3 1141  15.053   0.960   7.226
   96DOPC   PO4 1142  15.384   0.870   7.024
   96DOPC   GL1 1143  15.091   1.111   6.781
   96DOPC   GL2 1144  15.234   1.329   6.937
   96DOPC   C1A 1145  14.941   1.294   6.398
   96DOPC   D2A 1146  14.838   1.406   5.923
   96DOPC   C3A 1147  14.853   1.168   5.532
   96DOPC   C4A 1148  15.130   0.989   5.172
   96DOPC   C1B 1149  15.343   1.544   6.573
   96DOPC   D2B 1150  15.237   1.680   6.098
   96DOPC   C3B 1151  15.285   1.552   5.638
   96DOPC   C4B 1152  15.254   1.491   5.138
   97DOPC   NC3 1153   8.793   7.820   7.401
   97DOPC   PO4 1154   9.164   7.699   7.453
   97DOPC   GL1 1155   9.294   7.983   7.129
   97DOPC   GL2 1156   9.041   8.137   7.172
   97DOPC   C1A 1157   9.278   7.905   6.675
   97DOPC   D2A 1158   9.274   7.786   6.175
   97DOPC   C3A 1159   9.195   7.900   5.701
   97DOPC   C4A 1160   9.246   8.106   5.246
   97DOPC   C1B 1161   8.799   8.132   6.778
   97DOPC   D2B 1162   8.599   8.206   6.298
   97DOPC   C3B 1163   8.608   8.176   5.807
   97DOPC   C4B 1164   8.754   8.023   5.347
   98DOPC   NC3 1165  11.354   9.712   7.350
   98DOPC   PO4 1166  11.025   9.902   7.221
   98DOPC   GL1 1167  11.296   9.940   6.906
   98DOPC   GL2 1168  11.382   9.654   6.885
   98DOPC   C1A 1169  11.147   9.940   6.491
   98DOPC   D2A 1170  10.952   9.856   6.033
   98DOPC   C3A 1171  11.188   9.783   5.637
   98DOPC   C4A 1172  11.299   9.681   5.169
   98DOPC   C1B 1173  11.303   9.469   6.471
   98DOPC   D2B 1174  11.133   9.199   6.085
   98DOPC   C3B 1175  10.955   9.329   5.656
   98DOPC   C4B 1176  10.791   9.441   5.191
   99DOPC   NC3 1177   3.253   5.999   7.077
   99DOPC   PO4 1178   3.613   6.175   7.134
   99DOPC   GL1 1179   3.634   5.826   6.876
   99DOPC   GL2 1180   3.830   5.938   6.693
   99DOPC   C1A 1181   3.306   5.817   6.583
   99DOPC   D2A 1182   3.259   5.972   6.094
   99DOPC   C3A 1183   3.542   6.135   5.731
   99DOPC   C4A 1184   3.685   6.185   5.244
   99DOPC   C1B 1185   3.686   5.822   6.272
   99DOPC   D2B 1186   3.526   5.633   5.844
   99DOPC   C3B 1187   3.502   5.735   5.396
   99DOPC   C4B 1188   3.505   5.707   4.899
  100DOPC   NC3 1189   7.305   5.544   7.390
  100DOPC   PO4 1190   7.565   5.766   7.180
  100DOPC   GL1 1191   7.504   6.204   7.052
  100DOPC   GL2 1192   7.221   6.178   7.183
  100DOPC   C1A 1193   7.470   6.235   6.594
  100DOPC   D2A 1194   7.500   6.067   6.110
  100DOPC   C3A 1195   7.591   6.032   5.637
  100DOPC   C4A 1196   7.779   6.039   5.172
  100DOPC   C1B 1197   7.067   5.986   6.811
  100DOPC   D2B 1198   7.129   5.790   6.348
  100DOPC   C3B 1199   7.159   5.747   5.875
  100DOPC   C4B 1200   7.091   5.699   5.382
  101DOPC   NC3 1201  12.760   1.087   7.607
  101DOPC   PO4 1202  12.521   1.041   7.284
  101DOPC   GL1 1203  12.666   0.983   6.879
  101DOPC   GL2 1204  12.891   0.806   6.905
  101DOPC   C1A 1205  12.797   1.264   6.540
  101DOPC   D2A 1206  12.851   1.532   6.116
  101DOPC   C3A 1207  12.718   1.265   5.754
  101DOPC   C4A 1208  12.474   0.928   5.471
  101DOPC   C1B 1209  13.149   0.907   6.548
  101DOPC   D2B 1210  13.179   1.143   6.111
  101DOPC   C3B 1211  13.176   1.053   5.656
  101DOPC   C4B 1212  12.895   1.166   5.274
  102DOPC   NC3 1213   6.494   5.098   7.610
  102DOPC   PO4 1214   6.815   5.142   7.366
  102DOPC   GL1 1215   6.828   4.958   6.979
  102DOPC   GL2 1216   6.646   5.213   6.916
  102DOPC   C1A 1217   6.873   5.002   6.548
  102DOPC   D2A 1218   6.866   4.990   6.040
  102DOPC   C3A 1219   6.911   4.937   5.576
  102DOPC   C4A 1220   6.887   4.821   5.094
  102DOPC   C1B 1221   6.380   5.225   6.551
  102DOPC   D2B 1222   6.139   5.138   6.103
  102DOPC   C3B 1223   6.270   5.202   5.646
  102DOPC   C4B 1224   6.415   5.013   5.207
  103DOPC   NC3 1225  10.770   9.065   7.380
  103DOPC   PO4 1226  11.077   8.878   7.202
  103DOPC   GL1 1227  10.947   8.697   6.800
  103DOPC   GL2 1228  10.703   8.674   6.994
  103DOPC   C1A 1229  10.783   8.799   6.386
  103DOPC   D2A 1230  10.700   8.981   5.924
  103DOPC   C3A 1231  10.530   9.056   5.488
  103DOPC   C4A 1232  10.351   8.932   5.042
  103DOPC   C1B 1233  10.441   8.942   6.761
  103DOPC   D2B 1234  10.369   9.094   6.295
  103DOPC   C3B 1235  10.181   9.009   5.875
  103DOPC   C4B 1236  10.011   8.910   5.416
  104DOPC   NC3 1237  10.819   7.974   7.218
  104DOPC   PO4 1238  10.436   7.868   7.203
  104DOPC   GL1 1239  10.560   7.966   6.793
  104DOPC   GL2 1240  10.581   8.252   6.913
  104DOPC   C1A 1241  10.523   8.014   6.343
  104DOPC   D2A 1242  10.473   8.081   5.833
  104DOPC   C3A 1243  10.283   7.909   5.417
  104DOPC   C4A 1244   9.992   7.675   5.072
  104DOPC   C1B 1245  10.435   8.466   6.561
  104DOPC   D2B 1246  10.418   8.579   6.077
  104DOPC   C3B 1247  10.520   8.556   5.617
  104DOPC   C4B 1248  10.601   8.455   5.134
  105DOPC   NC3 1249   7.895   0.500   7.493
  105DOPC   PO4 1250   7.764   0.793   7.245
  105DOPC   GL1 1251   7.656   0.681   6.835
  105DOPC   GL2 1252   7.619   0.389   6.922
  105DOPC   C1A 1253   7.685   0.656   6.379
  105DOPC   D2A 1254   7.796   0.580   5.898
  105DOPC   C3A 1255   7.750   0.620   5.431
  105DOPC   C4A 1256   7.618   0.660   4.954
  105DOPC   C1B 1257   7.654   0.167   6.511
  105DOPC   D2B 1258   7.724   0.080   6.001
  105DOPC   C3B 1259   7.945   0.171   5.575
  105DOPC   C4B 1260   8.024   0.318   5.090
  106DOPC   NC3 1261   9.795   2.944   7.124
  106DOPC   PO4 1262   9.491   2.706   7.255
  106DOPC   GL1 1263   9.312   2.596   6.837
  106DOPC   GL2 1264   9.591   2.717   6.751
  106DOPC   C1A 1265   9.255   2.579   6.384
  106DOPC   D2A 1266   9.502   2.582   5.934
  106DOPC   C3A 1267   9.472   2.394   5.498
  106DOPC   C4A 1268   9.402   2.176   5.048
  106DOPC   C1B 1269   9.800   2.592   6.362
  106DOPC   D2B 1270  10.023   2.504   5.909
  106DOPC   C3B 1271  10.009   2.329   5.459
  106DOPC   C4B 1272   9.821   2.499   5.017
  107DOPC   NC3 1273   9.987   6.339   7.478
  107DOPC   PO4 1274   9.857   6.714   7.491
  107DOPC   GL1 1275   9.679   6.844   7.163
  107DOPC   GL2 1276   9.408   6.803   7.086
  107DOPC   C1A 1277   9.872   6.812   6.776
  107DOPC   D2A 1278  10.052   6.857   6.319
  107DOPC   C3A 1279   9.998   6.802   5.852
  107DOPC   C4A 1280   9.948   6.697   5.373
  107DOPC   C1B 1281   9.376   6.870   6.633
  107DOPC   D2B 1282   9.558   6.820   6.146
  107DOPC   C3B 1283   9.487   6.696   5.680
  107DOPC   C4B 1284   9.383   6.533   5.226
  108DOPC   NC3 1285  19.618   6.777   7.373
  108DOPC   PO4 1286  19.390   7.073   7.230
  108DOPC   GL1 1287  19.563   7.023   6.857
  108DOPC   GL2 1288  19.556   6.714   6.906
  108DOPC   C1A 1289  19.517   7.042   6.431
  108DOPC   D2A 1290  19.445   7.063   5.930
  108DOPC   C3A 1291  19.609   7.050   5.479
  108DOPC   C4A 1292  19.986   6.875   5.197
  108DOPC   C1B 1293  19.582   6.535   6.501
  108DOPC   D2B 1294  19.687   6.629   6.013
  108DOPC   C3B 1295  19.710   6.561   5.536
  108DOPC   C4B 1296  19.611   6.563   5.046
  109DOPC   NC3 1297  16.327   5.916   7.468
  109DOPC   PO4 1298  16.698   6.081   7.478
  109DOPC   GL1 1299  16.834   5.903   7.105
  109DOPC   GL2 1300  16.576   5.731   7.102
  109DOPC   C1A 1301  16.948   5.965   6.673
  109DOPC   D2A 1302  16.907   5.908   6.167
  109DOPC   C3A 1303  17.008   5.815   5.705
  109DOPC   C4A 1304  17.092   5.715   5.217
  109DOPC   C1B 1305  16.524   5.664   6.659
  109DOPC   D2B 1306  16.539   5.535   6.182
  109DOPC   C3B 1307  16.539   5.611   5.725
  109DOPC   C4B 1308  16.562   5.800   5.274
  110DOPC   NC3 1309  12.744   6.015   7.387
  110DOPC   PO4 1310  12.759   6.412   7.313
  110DOPC   GL1 1311  12.940   6.361   6.922
  110DOPC   GL2 1312  12.895   6.050   6.954
  110DOPC   C1A 1313  12.923   6.331   6.474
  110DOPC   D2A 1314  12.938   6.207   5.966
  110DOPC   C3A 1315  12.784   6.211   5.503
  110DOPC   C4A 1316  12.683   6.221   5.022
  110DOPC   C1B 1317  12.898   5.848   6.544
  110DOPC   D2B 1318  12.771   5.736   6.079
  110DOPC   C3B 1319  12.889   5.729   5.631
  110DOPC   C4B 1320  12.873   5.743   5.142
  111DOPC   NC3 1321   7.327   0.809   7.557
  111DOPC   PO4 1322   7.397   0.458   7.393
  111DOPC   GL1 1323   7.248   0.639   7.051
  111DOPC   GL2 1324   7.347   0.915   7.071
  111DOPC   C1A 1325   7.261   0.498   6.632
  111DOPC   D2A 1326   7.297   0.364   6.145
  111DOPC   C3A 1327   7.357   0.387   5.676
  111DOPC   C4A 1328   7.549   0.184   5.262
  111DOPC   C1B 1329   7.388   0.997   6.633
  111DOPC   D2B 1330   7.537   1.098   6.156
  111DOPC   C3B 1331   7.467   0.937   5.718
  111DOPC   C4B 1332   7.265   0.756   5.296
  112DOPC   NC3 1333  19.672   5.265   7.388
  112DOPC   PO4 1334  19.437   5.527   7.205
  112DOPC   GL1 1335  19.513   5.363   6.835
  112DOPC   GL2 1336  19.801   5.315   6.867
  112DOPC   C1A 1337  19.534   5.569   6.448
  112DOPC   D2A 1338  19.736   5.783   6.046
  112DOPC   C3A 1339  19.710   5.643   5.592
  112DOPC   C4A 1340  19.719   5.416   5.149
  112DOPC   C1B 1341   0.015   5.428   6.456
  112DOPC   D2B 1342   0.062   5.383   5.947
  112DOPC   C3B 1343  19.916   5.132   5.577
  112DOPC   C4B 1344  19.941   4.938   5.123
  113DOPC   NC3 1345   0.103   5.887   7.442
  113DOPC   PO4 1346   0.027   5.565   7.211
  113DOPC   GL1 1347  19.958   5.723   6.812
  113DOPC   GL2 1348  19.682   5.782   6.909
  113DOPC   C1A 1349  19.942   6.005   6.472
  113DOPC   D2A 1350  19.985   6.236   6.033
  113DOPC   C3A 1351   0.076   5.989   5.643
  113DOPC   C4A 1352   0.168   5.570   5.365
  113DOPC   C1B 1353  19.461   6.052   6.642
  113DOPC   D2B 1354  19.391   6.200   6.164
  113DOPC   C3B 1355  19.546   6.132   5.730
  113DOPC   C4B 1356  19.728   6.094   5.271
  114DOPC   NC3 1357  18.809   1.927   7.537
  114DOPC   PO4 1358  19.068   1.771   7.269
  114DOPC   GL1 1359  19.111   1.743   6.852
  114DOPC   GL2 1360  19.375   1.559   6.917
  114DOPC   C1A 1361  19.147   1.858   6.414
  114DOPC   D2A 1362  19.306   2.041   5.967
  114DOPC   C3A 1363  19.471   1.918   5.538
  114DOPC   C4A 1364  19.728   1.700   5.164
  114DOPC   C1B 1365  19.573   1.566   6.502
  114DOPC   D2B 1366  19.684   1.687   6.016
  114DOPC   C3B 1367  19.959   1.696   5.628
  114DOPC   C4B 1368   0.241   1.783   5.221
  115DOPC   NC3 1369  17.861   5.834   7.121
  115DOPC   PO4 1370  18.212   6.021   7.196
  115DOPC   GL1 1371  18.433   6.321   6.919
  115DOPC   GL2 1372  18.172   6.470   6.930
  115DOPC   C1A 1373  18.492   6.360   6.463
  115DOPC   D2A 1374  18.407   6.316   5.950
  115DOPC   C3A 1375  18.345   6.044   5.551
  115DOPC   C4A 1376  18.297   5.801   5.103
  115DOPC   C1B 1377  17.973   6.289   6.573
  115DOPC   D2B 1378  17.744   6.203   6.137
  115DOPC   C3B 1379  17.824   6.147   5.680
  115DOPC   C4B 1380  17.908   6.170   5.190
  116DOPC   NC3 1381  13.458   3.408   7.557
  116DOPC   PO4 1382  13.682   3.171   7.333
  116DOPC   GL1 1383  13.432   3.115   6.979
  116DOPC   GL2 1384  13.448   3.424   6.965
  116DOPC   C1A 1385  13.366   3.030   6.552
  116DOPC   D2A 1386  13.438   2.952   6.064
  116DOPC   C3A 1387  13.274   2.969   5.625
  116DOPC   C4A 1388  13.095   3.012   5.178
  116DOPC   C1B 1389  13.336   3.594   6.562
  116DOPC   D2B 1390  13.277   3.822   6.104
  116DOPC   C3B 1391  13.570   3.790   5.720
  116DOPC   C4B 1392  13.934   3.679   5.382
  117DOPC   NC3 1393  15.492   5.213   7.377
  117DOPC   PO4 1394  15.770   4.959   7.237
  117DOPC   GL1 1395  16.109   5.019   6.930
  117DOPC   GL2 1396  15.851   5.106   6.766
  117DOPC   C1A 1397  16.178   4.799   6.548
  117DOPC   D2A 1398  16.223   4.627   6.086
  117DOPC   C3A 1399  16.144   4.764   5.635
  117DOPC   C4A 1400  16.184   4.967   5.166
  117DOPC   C1B 1401  15.764   5.002   6.324
  117DOPC   D2B 1402  15.693   4.946   5.814
  117DOPC   C3B 1403  15.717   4.842   5.338
  117DOPC   C4B 1404  15.793   4.908   4.841
  118DOPC   NC3 1405   7.691   1.980   7.343
  118DOPC   PO4 1406   7.432   1.695   7.225
  118DOPC   GL1 1407   7.487   1.783   6.820
  118DOPC   GL2 1408   7.570   2.066   6.898
  118DOPC   C1A 1409   7.299   1.814   6.408
  118DOPC   D2A 1410   7.166   1.869   5.928
  118DOPC   C3A 1411   6.990   1.594   5.579
  118DOPC   C4A 1412   6.848   1.292   5.204
  118DOPC   C1B 1413   7.436   2.282   6.541
  118DOPC   D2B 1414   7.194   2.515   6.169
  118DOPC   C3B 1415   7.045   2.342   5.762
  118DOPC   C4B 1416   6.845   2.184   5.339
  119DOPC   NC3 1417   0.460   5.450   7.434
  119DOPC   PO4 1418   0.629   5.800   7.365
  119DOPC   GL1 1419   0.451   5.634   6.990
  119DOPC   GL2 1420   0.743   5.587   6.954
  119DOPC   C1A 1421   0.372   5.755   6.576
  119DOPC   D2A 1422   0.256   5.823   6.109
  119DOPC   C3A 1423   0.476   5.659   5.744
  119DOPC   C4A 1424   0.744   5.498   5.362
  119DOPC   C1B 1425   0.765   5.993   6.742
  119DOPC   D2B 1426   0.512   6.221   6.344
  119DOPC   C3B 1427   0.523   6.193   5.852
  119DOPC   C4B 1428   0.509   6.008   5.372
  120DOPC   NC3 1429   5.706   0.304   7.644
  120DOPC   PO4 1430   5.754   0.614   7.391
  120DOPC   GL1 1431   5.954   0.577   6.994
  120DOPC   GL2 1432   6.025   0.863   7.004
  120DOPC   C1A 1433   6.258   0.480   6.677
  120DOPC   D2A 1434   6.510   0.204   6.341
  120DOPC   C3A 1435   6.408   0.085   5.903
  120DOPC   C4A 1436   6.318   0.062   5.414
  120DOPC   C1B 1437   5.745   0.902   6.651
  120DOPC   D2B 1438   5.529   1.060   6.207
  120DOPC   C3B 1439   5.745   0.950   5.794
  120DOPC   C4B 1440   6.010   0.838   5.373
  121DOPC   NC3 1441   7.175   6.458   7.581
  121DOPC   PO4 1442   7.480   6.588   7.348
  121DOPC   GL1 1443   7.367   6.712   6.979
  121DOPC   GL2 1444   7.086   6.593   7.063
  121DOPC   C1A 1445   7.501   6.785   6.553
  121DOPC   D2A 1446   7.522   6.846   6.050
  121DOPC   C3A 1447   7.528   6.964   5.594
  121DOPC   C4A 1448   7.651   6.926   5.111
  121DOPC   C1B 1449   6.986   6.459   6.667
  121DOPC   D2B 1450   7.037   6.259   6.212
  121DOPC   C3B 1451   7.132   6.234   5.747
  121DOPC   C4B 1452   7.241   6.195   5.259
  122DOPC   NC3 1453   5.002   7.488   6.785
  122DOPC   PO4 1454   4.807   7.671   7.081
  122DOPC   GL1 1455   4.916   7.967   6.759
  122DOPC   GL2 1456   5.217   7.919   6.860
  122DOPC   C1A 1457   4.867   7.982   6.310
  122DOPC   D2A 1458   4.884   8.038   5.806
  122DOPC   C3A 1459   4.828   8.114   5.347
  122DOPC   C4A 1460   4.728   8.221   4.878
  122DOPC   C1B 1461   5.530   8.047   6.556
  122DOPC   D2B 1462   5.702   7.948   6.092
  122DOPC   C3B 1463   5.545   7.944   5.644
  122DOPC   C4B 1464   5.509   7.711   5.203
  123DOPC   NC3 1465  17.870   3.329   7.440
  123DOPC   PO4 1466  17.718   3.134   7.115
  123DOPC   GL1 1467  17.395   3.250   6.863
  123DOPC   GL2 1468  17.473   3.554   6.912
  123DOPC   C1A 1469  17.459   3.176   6.430
  123DOPC   D2A 1470  17.457   3.311   5.948
  123DOPC   C3A 1471  17.596   3.516   5.538
  123DOPC   C4A 1472  17.746   3.679   5.088
  123DOPC   C1B 1473  17.668   3.628   6.507
  123DOPC   D2B 1474  17.905   3.314   6.169
  123DOPC   C3B 1475  17.904   3.144   5.713
  123DOPC   C4B 1476  17.951   3.184   5.204
  124DOPC   NC3 1477   2.030   7.756   7.392
  124DOPC   PO4 1478   1.913   7.514   7.101
  124DOPC   GL1 1479   1.985   7.583   6.694
  124DOPC   GL2 1480   2.283   7.494   6.770
  124DOPC   C1A 1481   2.111   7.594   6.273
  124DOPC   D2A 1482   2.442   7.599   5.891
  124DOPC   C3A 1483   2.468   7.631   5.428
  124DOPC   C4A 1484   2.574   7.892   5.018
  124DOPC   C1B 1485   2.587   7.501   6.432
  124DOPC   D2B 1486   2.856   7.291   6.052
  124DOPC   C3B 1487   2.845   7.330   5.586
  124DOPC   C4B 1488   2.959   7.581   5.172
  125DOPC   NC3 1489   3.684   1.405   7.135
  125DOPC   PO4 1490   3.291   1.427   7.228
  125DOPC   GL1 1491   3.257   1.629   6.825
  125DOPC   GL2 1492   3.483   1.790   6.945
  125DOPC   C1A 1493   3.313   1.729   6.371
  125DOPC   D2A 1494   3.301   1.854   5.879
  125DOPC   C3A 1495   3.134   2.089   5.495
  125DOPC   C4A 1496   3.238   2.087   5.000
  125DOPC   C1B 1497   3.735   1.591   6.637
  125DOPC   D2B 1498   3.715   1.549   6.138
  125DOPC   C3B 1499   3.883   1.684   5.730
  125DOPC   C4B 1500   3.981   1.661   5.251
  126DOPC   NC3 1501   6.202   8.444   7.264
  126DOPC   PO4 1502   6.461   8.252   7.034
  126DOPC   GL1 1503   6.362   8.298   6.647
  126DOPC   GL2 1504   6.068   8.350   6.716
  126DOPC   C1A 1505   6.375   8.413   6.230
  126DOPC   D2A 1506   6.247   8.575   5.773
  126DOPC   C3A 1507   6.337   8.700   5.331
  126DOPC   C4A 1508   6.366   8.822   4.850
  126DOPC   C1B 1509   5.850   8.404   6.320
  126DOPC   D2B 1510   5.707   8.422   5.838
  126DOPC   C3B 1511   5.810   8.683   5.443
  126DOPC   C4B 1512   5.921   8.995   5.068
  127DOPC   NC3 1513  15.491   7.990   7.492
  127DOPC   PO4 1514  15.774   7.712   7.539
  127DOPC   GL1 1515  15.869   7.791   7.149
  127DOPC   GL2 1516  15.858   8.081   7.203
  127DOPC   C1A 1517  15.721   7.746   6.725
  127DOPC   D2A 1518  15.817   7.873   6.248
  127DOPC   C3A 1519  16.061   7.790   5.843
  127DOPC   C4A 1520  16.278   7.737   5.392
  127DOPC   C1B 1521  15.973   8.193   6.807
  127DOPC   D2B 1522  15.905   8.403   6.354
  127DOPC   C3B 1523  15.897   8.282   5.904
  127DOPC   C4B 1524  15.914   8.103   5.444
  128DOPC   NC3 1525   1.084   5.546   7.291
  128DOPC   PO4 1526   1.432   5.360   7.224
  128DOPC   GL1 1527   1.363   5.201   6.819
  128DOPC   GL2 1528   1.081   5.308   6.856
  128DOPC   C1A 1529   1.299   5.294   6.384
  128DOPC   D2A 1530   1.131   5.493   5.950
  128DOPC   C3A 1531   1.388   5.652   5.582
  128DOPC   C4A 1532   1.623   5.946   5.250
  128DOPC   C1B 1533   0.892   5.548   6.520
  128DOPC   D2B 1534   0.783   5.838   6.128
  128DOPC   C3B 1535   0.923   5.884   5.682
  128DOPC   C4B 1536   1.085   5.897   5.214
  129DOPC   NC3 1537   4.640   7.236   7.354
  129DOPC   PO4 1538   4.933   7.111   7.100
  129DOPC   GL1 1539   4.598   7.250   6.879
  129DOPC   GL2 1540   4.495   6.957   6.982
  129DOPC   C1A 1541   4.571   7.458   6.471
  129DOPC   D2A 1542   4.533   7.685   6.013
  129DOPC   C3A 1543   4.607   7.697   5.542
  129DOPC   C4A 1544   4.753   7.685   5.068
  129DOPC   C1B 1545   4.464   6.887   6.560
  129DOPC   D2B 1546   4.491   7.111   6.118
  129DOPC   C3B 1547   4.386   7.279   5.691
  129DOPC   C4B 1548   4.356   7.374   5.200
  130DOPC   NC3 1549  13.912   7.950   7.528
  130DOPC   PO4 1550  14.091   8.237   7.318
  130DOPC   GL1 1551  13.963   8.099   6.909
  130DOPC   GL2 1552  13.702   8.008   7.053
  130DOPC   C1A 1553  13.833   7.829   6.580
  130DOPC   D2A 1554  13.496   7.922   6.205
  130DOPC   C3A 1555  13.617   7.930   5.745
  130DOPC   C4A 1556  13.815   8.076   5.314
  130DOPC   C1B 1557  13.398   8.087   6.716
  130DOPC   D2B 1558  13.210   8.336   6.302
  130DOPC   C3B 1559  13.181   8.417   5.831
  130DOPC   C4B 1560  13.037   8.434   5.354
  131DOPC   NC3 1561   1.007   8.025   7.302
  131DOPC   PO4 1562   1.078   8.417   7.265
  131DOPC   GL1 1563   1.116   8.290   6.880
  131DOPC   GL2 1564   1.193   7.984   6.899
  131DOPC   C1A 1565   0.872   8.351   6.530
  131DOPC   D2A 1566   0.715   8.346   6.057
  131DOPC   C3A 1567   0.959   8.417   5.656
  131DOPC   C4A 1568   1.148   8.139   5.295
  131DOPC   C1B 1569   1.259   7.723   6.538
  131DOPC   D2B 1570   1.307   7.492   6.098
  131DOPC   C3B 1571   1.055   7.562   5.736
  131DOPC   C4B 1572   0.924   7.674   5.289
  132DOPC   NC3 1573   8.833   8.524   7.372
  132DOPC   PO4 1574   9.108   8.783   7.245
  132DOPC   GL1 1575   9.073   8.497   6.926
  132DOPC   GL2 1576   8.771   8.570   6.909
  132DOPC   C1A 1577   9.141   8.403   6.500
  132DOPC   D2A 1578   9.075   8.249   6.033
  132DOPC   C3A 1579   9.054   8.441   5.592
  132DOPC   C4A 1580   9.115   8.601   5.117
  132DOPC   C1B 1581   8.706   8.691   6.486
  132DOPC   D2B 1582   8.833   8.687   6.004
  132DOPC   C3B 1583   8.674   8.837   5.589
  132DOPC   C4B 1584   8.475   9.040   5.170
  133DOPC   NC3 1585   8.424   9.291   7.471
  133DOPC   PO4 1586   8.159   9.181   7.191
  133DOPC   GL1 1587   8.346   9.026   6.755
  133DOPC   GL2 1588   8.305   9.327   6.746
  133DOPC   C1A 1589   8.277   9.015   6.286
  133DOPC   D2A 1590   8.243   9.112   5.775
  133DOPC   C3A 1591   8.216   9.499   5.470
  133DOPC   C4A 1592   8.348   9.917   5.213
  133DOPC   C1B 1593   8.035   9.463   6.409
  133DOPC   D2B 1594   7.693   9.562   6.058
  133DOPC   C3B 1595   7.743   9.697   5.614
  133DOPC   C4B 1596   7.852   9.791   5.138
  134DOPC   NC3 1597  10.861   2.675   7.582
  134DOPC   PO4 1598  10.594   2.544   7.312
  134DOPC   GL1 1599  10.766   2.406   6.915
  134DOPC   GL2 1600  10.915   2.675   6.930
  134DOPC   C1A 1601  10.637   2.382   6.475
  134DOPC   D2A 1602  10.530   2.385   5.984
  134DOPC   C3A 1603  10.566   2.328   5.526
  134DOPC   C4A 1604  10.739   2.207   5.086
  134DOPC   C1B 1605  10.729   2.880   6.573
  134DOPC   D2B 1606  10.441   2.845   6.156
  134DOPC   C3B 1607  10.385   2.786   5.691
  134DOPC   C4B 1608  10.315   2.662   5.221
  135DOPC   NC3 1609   7.438   7.617   7.199
  135DOPC   PO4 1610   7.058   7.466   7.237
  135DOPC   GL1 1611   6.835   7.426   6.876
  135DOPC   GL2 1612   6.666   7.191   6.925
  135DOPC   C1A 1613   6.922   7.429   6.436
  135DOPC   D2A 1614   7.046   7.213   5.995
  135DOPC   C3A 1615   6.896   7.148   5.549
  135DOPC   C4A 1616   6.678   6.866   5.197
  135DOPC   C1B 1617   6.574   7.059   6.506
  135DOPC   D2B 1618   6.600   6.935   6.024
  135DOPC   C3B 1619   6.401   7.118   5.654
  135DOPC   C4B 1620   6.508   7.344   5.230
  136DOPC   NC3 1621   3.109   0.612   7.354
  136DOPC   PO4 1622   3.463   0.424   7.369
  136DOPC   GL1 1623   3.462   0.605   6.946
  136DOPC   GL2 1624   3.659   0.361   6.907
  136DOPC   C1A 1625   3.439   0.664   6.496
  136DOPC   D2A 1626   3.451   0.553   5.999
  136DOPC   C3A 1627   3.668   0.694   5.611
  136DOPC   C4A 1628   3.878   0.828   5.178
  136DOPC   C1B 1629   3.722   0.242   6.477
  136DOPC   D2B 1630   3.656   0.066   6.016
  136DOPC   C3B 1631   3.657   0.133   5.562
  136DOPC   C4B 1632   3.801   0.022   5.100
  137DOPC   NC3 1633   1.727   2.271   7.289
  137DOPC   PO4 1634   1.380   2.357   7.129
  137DOPC   GL1 1635   1.442   2.168   6.756
  137DOPC   GL2 1636   1.702   2.024   6.862
  137DOPC   C1A 1637   1.451   2.189   6.308
  137DOPC   D2A 1638   1.505   2.247   5.818
  137DOPC   C3A 1639   1.564   2.198   5.366
  137DOPC   C4A 1640   1.575   2.206   4.866
  137DOPC   C1B 1641   1.980   1.849   6.527
  137DOPC   D2B 1642   2.258   1.822   6.101
  137DOPC   C3B 1643   2.094   1.887   5.655
  137DOPC   C4B 1644   1.917   1.896   5.176
  138DOPC   NC3 1645  15.541   8.495   7.508
  138DOPC   PO4 1646  15.352   8.781   7.303
  138DOPC   GL1 1647  15.452   8.578   6.925
  138DOPC   GL2 1648  15.673   8.453   7.052
  138DOPC   C1A 1649  15.489   8.687   6.496
  138DOPC   D2A 1650  15.424   8.700   5.991
  138DOPC   C3A 1651  15.447   8.384   5.628
  138DOPC   C4A 1652  15.418   8.016   5.281
  138DOPC   C1B 1653  15.970   8.684   6.805
  138DOPC   D2B 1654  16.361   8.655   6.480
  138DOPC   C3B 1655  16.295   8.606   6.021
  138DOPC   C4B 1656  16.155   8.570   5.542
  139DOPC   NC3 1657  10.669   5.946   7.632
  139DOPC   PO4 1658  10.271   5.956   7.643
  139DOPC   GL1 1659  10.210   6.027   7.226
  139DOPC   GL2 1660  10.504   5.971   7.178
  139DOPC   C1A 1661  10.154   5.835   6.855
  139DOPC   D2A 1662  10.107   5.889   6.374
  139DOPC   C3A 1663  10.153   5.963   5.928
  139DOPC   C4A 1664  10.170   5.979   5.450
  139DOPC   C1B 1665  10.562   6.106   6.744
  139DOPC   D2B 1666  10.527   6.160   6.233
  139DOPC   C3B 1667  10.633   6.010   5.780
  139DOPC   C4B 1668  10.634   5.837   5.310
  140DOPC   NC3 1669   2.760   5.336   7.382
  140DOPC   PO4 1670   2.550   5.012   7.306
  140DOPC   GL1 1671   2.657   5.269   6.930
  140DOPC   GL2 1672   2.394   5.178   6.839
  140DOPC   C1A 1673   2.943   5.414   6.587
  140DOPC   D2A 1674   3.050   5.510   6.092
  140DOPC   C3A 1675   3.119   5.431   5.608
  140DOPC   C4A 1676   3.380   5.298   5.184
  140DOPC   C1B 1677   2.560   5.097   6.436
  140DOPC   D2B 1678   2.823   5.051   6.005
  140DOPC   C3B 1679   2.732   5.077   5.545
  140DOPC   C4B 1680   2.916   5.119   5.103
  141DOPC   NC3 1681   5.860   3.605   7.422
  141DOPC   PO4 1682   5.958   3.230   7.319
  141DOPC   GL1 1683   6.144   3.297   6.920
  141DOPC   GL2 1684   6.105   3.599   7.009
  141DOPC   C1A 1685   6.111   3.318   6.466
  141DOPC   D2A 1686   6.030   3.376   5.968
  141DOPC   C3A 1687   6.185   3.322   5.527
  141DOPC   C4A 1688   6.094   3.230   5.036
  141DOPC   C1B 1689   6.035   3.853   6.644
  141DOPC   D2B 1690   6.108   3.965   6.147
  141DOPC   C3B 1691   6.041   3.818   5.693
  141DOPC   C4B 1692   5.792   3.567   5.336
  142DOPC   NC3 1693  14.957   9.792   7.297
  142DOPC   PO4 1694  15.277   0.030   7.260
  142DOPC   GL1 1695  15.069   0.046   6.887
  142DOPC   GL2 1696  15.338   0.032   6.743
  142DOPC   C1A 1697  14.891   0.272   6.555
  142DOPC   D2A 1698  14.904   0.389   6.065
  142DOPC   C3A 1699  14.802   0.243   5.627
  142DOPC   C4A 1700  14.733   0.014   5.187
  142DOPC   C1B 1701  15.227   9.986   6.304
  142DOPC   D2B 1702  15.111   9.898   5.827
  142DOPC   C3B 1703  15.046   9.670   5.415
  142DOPC   C4B 1704  14.984   9.628   4.920
  143DOPC   NC3 1705  19.064   9.186   7.572
  143DOPC   PO4 1706  18.853   9.164   7.229
  143DOPC   GL1 1707  18.835   9.333   6.838
  143DOPC   GL2 1708  19.113   9.438   6.822
  143DOPC   C1A 1709  18.721   9.189   6.423
  143DOPC   D2A 1710  18.814   9.021   5.934
  143DOPC   C3A 1711  18.779   8.809   5.493
  143DOPC   C4A 1712  18.681   8.602   5.034
  143DOPC   C1B 1713  19.206   9.325   6.375
  143DOPC   D2B 1714  19.282   9.262   5.875
  143DOPC   C3B 1715  19.278   8.926   5.537
  143DOPC   C4B 1716  19.199   8.585   5.179
  144DOPC   NC3 1717   8.226   7.323   7.258
  144DOPC   PO4 1718   7.832   7.274   7.178
  144DOPC   GL1 1719   7.801   7.129   6.776
  144DOPC   GL2 1720   8.122   7.221   6.798
  144DOPC   C1A 1721   7.776   7.191   6.324
  144DOPC   D2A 1722   7.851   7.307   5.824
  144DOPC   C3A 1723   7.764   7.365   5.345
  144DOPC   C4A 1724   7.606   7.366   4.842
  144DOPC   C1B 1725   8.367   7.184   6.423
  144DOPC   D2B 1726   8.347   7.325   5.950
  144DOPC   C3B 1727   8.346   7.204   5.503
  144DOPC   C4B 1728   8.504   6.998   5.089
  145DOPC   NC3 1729   1.030   1.236   7.312
  145DOPC   PO4 1730   0.981   1.624   7.205
  145DOPC   GL1 1731   0.951   1.548   6.766
  145DOPC   GL2 1732   0.921   1.256   6.857
  145DOPC   C1A 1733   0.999   1.525   6.307
  145DOPC   D2A 1734   0.997   1.498   5.794
  145DOPC   C3A 1735   1.168   1.402   5.359
  145DOPC   C4A 1736   1.309   1.295   4.893
  145DOPC   C1B 1737   0.815   1.052   6.489
  145DOPC   D2B 1738   0.928   1.033   6.007
  145DOPC   C3B 1739   0.850   1.034   5.543
  145DOPC   C4B 1740   0.893   1.008   5.051
  146DOPC   NC3 1741   3.629   4.691   7.380
  146DOPC   PO4 1742   3.664   4.928   7.056
  146DOPC   GL1 1743   3.452   4.925   6.713
  146DOPC   GL2 1744   3.264   4.694   6.823
  146DOPC   C1A 1745   3.594   4.845   6.296
  146DOPC   D2A 1746   3.708   4.755   5.803
  146DOPC   C3A 1747   3.627   4.468   5.420
  146DOPC   C4A 1748   3.636   3.996   5.214
  146DOPC   C1B 1749   3.152   4.428   6.473
  146DOPC   D2B 1750   2.985   4.109   6.113
  146DOPC   C3B 1751   3.043   4.130   5.649
  146DOPC   C4B 1752   3.183   4.273   5.198
  147DOPC   NC3 1753   1.550   6.081   7.407
  147DOPC   PO4 1754   1.904   5.908   7.500
  147DOPC   GL1 1755   1.977   5.821   7.088
  147DOPC   GL2 1756   1.694   5.725   7.061
  147DOPC   C1A 1757   2.084   5.919   6.653
  147DOPC   D2A 1758   2.342   5.939   6.226
  147DOPC   C3A 1759   2.309   5.980   5.753
  147DOPC   C4A 1760   2.260   6.174   5.294
  147DOPC   C1B 1761   1.637   5.638   6.614
  147DOPC   D2B 1762   1.641   5.549   6.105
  147DOPC   C3B 1763   1.886   5.655   5.711
  147DOPC   C4B 1764   2.075   5.692   5.256
  148DOPC   NC3 1765  16.521   0.169   7.083
  148DOPC   PO4 1766  16.472   9.790   7.195
  148DOPC   GL1 1767  16.670   9.757   6.847
  148DOPC   GL2 1768  16.936   9.881   6.917
  148DOPC   C1A 1769  16.585   9.684   6.425
  148DOPC   D2A 1770  16.511   9.638   5.939
  148DOPC   C3A 1771  16.417   9.866   5.547
  148DOPC   C4A 1772  16.226   0.071   5.149
  148DOPC   C1B 1773  17.081   9.674   6.547
  148DOPC   D2B 1774  16.932   9.421   6.113
  148DOPC   C3B 1775  16.952   9.648   5.696
  148DOPC   C4B 1776  16.852   9.847   5.251
  149DOPC   NC3 1777   2.968   1.120   7.514
  149DOPC   PO4 1778   2.710   0.891   7.308
  149DOPC   GL1 1779   3.062   0.980   7.068
  149DOPC   GL2 1780   2.915   1.226   7.028
  149DOPC   C1A 1781   3.048   0.945   6.656
  149DOPC   D2A 1782   3.086   0.898   6.166
  149DOPC   C3A 1783   3.152   0.962   5.708
  149DOPC   C4A 1784   3.343   0.920   5.253
  149DOPC   C1B 1785   2.582   1.200   6.715
  149DOPC   D2B 1786   2.547   1.413   6.239
  149DOPC   C3B 1787   2.487   1.504   5.768
  149DOPC   C4B 1788   2.368   1.636   5.299
  150DOPC   NC3 1789   2.205   9.725   6.863
  150DOPC   PO4 1790   2.546   9.518   6.891
  150DOPC   GL1 1791   2.790   9.589   6.524
  150DOPC   GL2 1792   2.541   9.506   6.383
  150DOPC   C1A 1793   3.046   9.315   6.302
  150DOPC   D2A 1794   3.255   8.931   6.054
  150DOPC   C3A 1795   3.332   8.808   5.606
  150DOPC   C4A 1796   3.285   8.595   5.165
  150DOPC   C1B 1797   2.648   9.400   5.966
  150DOPC   D2B 1798   2.934   9.142   5.634
  150DOPC   C3B 1799   2.934   8.981   5.186
  150DOPC   C4B 1800   2.963   8.779   4.729
  151DOPC   NC3 1801  19.832   4.815   7.558
  151DOPC   PO4 1802  19.984   4.555   7.294
  151DOPC   GL1 1803  19.907   4.562   6.862
  151DOPC   GL2 1804   0.044   4.296   6.837
  151DOPC   C1A 1805  19.920   4.619   6.418
  151DOPC   D2A 1806  19.852   4.736   5.935
  151DOPC   C3A 1807  19.973   4.587   5.490
  151DOPC   C4A 1808   0.113   4.453   5.021
  151DOPC   C1B 1809   0.124   4.092   6.458
  151DOPC   D2B 1810   0.061   3.851   6.031
  151DOPC   C3B 1811  19.845   3.977   5.640
  151DOPC   C4B 1812  19.709   4.209   5.236
  152DOPC   NC3 1813  15.680   2.587   7.171
  152DOPC   PO4 1814  15.655   2.191   7.098
  152DOPC   GL1 1815  15.690   2.217   6.656
  152DOPC   GL2 1816  15.839   2.483   6.711
  152DOPC   C1A 1817  15.658   2.274   6.196
  152DOPC   D2A 1818  15.658   2.276   5.677
  152DOPC   C3A 1819  15.851   2.290   5.233
  152DOPC   C4A 1820  15.953   2.389   4.746
  152DOPC   C1B 1821  16.005   2.664   6.327
  152DOPC   D2B 1822  15.987   2.670   5.825
  152DOPC   C3B 1823  15.725   2.756   5.433
  152DOPC   C4B 1824  15.328   2.893   5.153
  153DOPC   NC3 1825  18.153   0.459   7.349
  153DOPC   PO4 1826  18.148   0.757   7.084
  153DOPC   GL1 1827  18.219   0.537   6.727
  153DOPC   GL2 1828  18.089   0.306   6.878
  153DOPC   C1A 1829  18.185   0.299   6.351
  153DOPC   D2A 1830  18.177   0.017   5.956
  153DOPC   C3A 1831  18.190   9.964   5.505
  153DOPC   C4A 1832  18.253   0.023   5.012
  153DOPC   C1B 1833  17.735   0.340   6.594
  153DOPC   D2B 1834  17.633   0.379   6.103
  153DOPC   C3B 1835  17.765   0.218   5.680
  153DOPC   C4B 1836  18.030   0.397   5.302
  154DOPC   NC3 1837   0.647   9.869   7.540
  154DOPC   PO4 1838   0.766   9.497   7.421
  154DOPC   GL1 1839   0.569   9.497   7.018
  154DOPC   GL2 1840   0.645   9.826   7.033
  154DOPC   C1A 1841   0.434   9.251   6.638
  154DOPC   D2A 1842   0.276   9.026   6.201
  154DOPC   C3A 1843   0.253   9.167   5.744
  154DOPC   C4A 1844   0.234   9.293   5.261
  154DOPC   C1B 1845   0.502   0.077   6.661
  154DOPC   D2B 1846   0.414   0.223   6.162
  154DOPC   C3B 1847   0.563   0.116   5.711
  154DOPC   C4B 1848   0.677   0.108   5.220
  155DOPC   NC3 1849  17.262   8.141   7.231
  155DOPC   PO4 1850  17.629   8.307   7.245
  155DOPC   GL1 1851  17.573   8.095   6.833
  155DOPC   GL2 1852  17.378   8.344   6.817
  155DOPC   C1A 1853  17.652   8.018   6.375
  155DOPC   D2A 1854  17.651   7.960   5.863
  155DOPC   C3A 1855  17.537   7.827   5.416
  155DOPC   C4A 1856  17.481   7.649   4.944
  155DOPC   C1B 1857  17.265   8.385   6.394
  155DOPC   D2B 1858  17.224   8.481   5.899
  155DOPC   C3B 1859  17.376   8.312   5.484
  155DOPC   C4B 1860  17.477   8.144   5.019
  156DOPC   NC3 1861  17.956   1.852   7.442
  156DOPC   PO4 1862  17.934   1.602   7.131
  156DOPC   GL1 1863  17.901   1.841   6.814
  156DOPC   GL2 1864  17.605   1.780   6.721
  156DOPC   C1A 1865  18.140   1.647   6.486
  156DOPC   D2A 1866  18.399   1.481   6.084
  156DOPC   C3A 1867  18.493   1.733   5.691
  156DOPC   C4A 1868  18.539   2.065   5.327
  156DOPC   C1B 1869  17.590   1.723   6.259
  156DOPC   D2B 1870  17.777   1.737   5.788
  156DOPC   C3B 1871  17.915   1.788   5.328
  156DOPC   C4B 1872  18.040   1.841   4.843
  157DOPC   NC3 1873  13.974   6.818   7.409
  157DOPC   PO4 1874  13.631   7.011   7.317
  157DOPC   GL1 1875  13.850   7.112   6.955
  157DOPC   GL2 1876  14.104   7.188   7.096
  157DOPC   C1A 1877  13.854   7.306   6.548
  157DOPC   D2A 1878  13.753   7.503   6.096
  157DOPC   C3A 1879  13.945   7.357   5.696
  157DOPC   C4A 1880  13.861   7.111   5.284
  157DOPC   C1B 1881  14.253   7.495   6.790
  157DOPC   D2B 1882  14.216   7.555   6.288
  157DOPC   C3B 1883  14.316   7.705   5.841
  157DOPC   C4B 1884  14.536   7.675   5.391
  158DOPC   NC3 1885  15.000   5.045   7.474
  158DOPC   PO4 1886  15.251   4.773   7.297
  158DOPC   GL1 1887  15.442   4.820   6.869
  158DOPC   GL2 1888  15.438   5.118   6.930
  158DOPC   C1A 1889  15.249   4.817   6.437
  158DOPC   D2A 1890  14.902   4.749   6.054
  158DOPC   C3A 1891  14.858   4.642   5.592
  158DOPC   C4A 1892  14.883   4.556   5.103
  158DOPC   C1B 1893  15.252   5.305   6.575
  158DOPC   D2B 1894  15.009   5.244   6.139
  158DOPC   C3B 1895  15.042   5.126   5.680
  158DOPC   C4B 1896  15.170   4.956   5.226
  159DOPC   NC3 1897   5.030   9.080   7.564
  159DOPC   PO4 1898   4.839   9.110   7.205
  159DOPC   GL1 1899   4.793   8.861   6.852
  159DOPC   GL2 1900   5.026   8.670   6.912
  159DOPC   C1A 1901   4.886   8.843   6.423
  159DOPC   D2A 1902   4.884   8.549   6.017
  159DOPC   C3A 1903   4.687   8.551   5.596
  159DOPC   C4A 1904   4.427   8.521   5.169
  159DOPC   C1B 1905   5.105   8.380   6.563
  159DOPC   D2B 1906   5.281   8.240   6.097
  159DOPC   C3B 1907   5.217   8.373   5.628
  159DOPC   C4B 1908   5.053   8.537   5.174
  160DOPC   NC3 1909   5.677   1.143   7.116
  160DOPC   PO4 1910   5.488   1.489   7.052
  160DOPC   GL1 1911   5.270   1.456   6.661
  160DOPC   GL2 1912   5.530   1.305   6.619
  160DOPC   C1A 1913   5.267   1.503   6.205
  160DOPC   D2A 1914   5.592   1.431   5.805
  160DOPC   C3A 1915   5.673   1.226   5.366
  160DOPC   C4A 1916   5.785   1.066   4.897
  160DOPC   C1B 1917   5.772   1.527   6.324
  160DOPC   D2B 1918   6.109   1.557   5.961
  160DOPC   C3B 1919   6.021   1.563   5.507
  160DOPC   C4B 1920   5.896   1.553   5.027
  161DOPC   NC3 1921   9.647   8.718   7.716
  161DOPC   PO4 1922   9.588   8.934   7.377
  161DOPC   GL1 1923   9.762   8.985   6.950
  161DOPC   GL2 1924   9.463   9.092   6.888
  161DOPC   C1A 1925   9.908   9.089   6.537
  161DOPC   D2A 1926   9.698   9.119   6.073
  161DOPC   C3A 1927   9.835   9.327   5.669
  161DOPC   C4A 1928  10.238   9.490   5.412
  161DOPC   C1B 1929   9.462   9.327   6.486
  161DOPC   D2B 1930   9.581   9.633   6.078
  161DOPC   C3B 1931   9.584   9.777   5.619
  161DOPC   C4B 1932   9.535   9.572   5.165
  162DOPC   NC3 1933   6.201   4.673   7.573
  162DOPC   PO4 1934   6.243   4.388   7.284
  162DOPC   GL1 1935   6.166   4.513   6.895
  162DOPC   GL2 1936   5.887   4.424   6.851
  162DOPC   C1A 1937   6.309   4.343   6.521
  162DOPC   D2A 1938   6.459   4.311   6.047
  162DOPC   C3A 1939   6.194   4.317   5.673
  162DOPC   C4A 1940   5.942   4.455   5.273
  162DOPC   C1B 1941   5.802   4.294   6.417
  162DOPC   D2B 1942   5.745   4.227   5.903
  162DOPC   C3B 1943   5.659   4.072   5.457
  162DOPC   C4B 1944   5.644   3.925   4.974
  163DOPC   NC3 1945  10.477   3.438   7.268
  163DOPC   PO4 1946  10.320   3.132   7.064
  163DOPC   GL1 1947  10.477   3.359   6.757
  163DOPC   GL2 1948  10.763   3.371   6.878
  163DOPC   C1A 1949  10.463   3.328   6.307
  163DOPC   D2A 1950  10.243   3.256   5.848
  163DOPC   C3A 1951  10.230   3.159   5.371
  163DOPC   C4A 1952  10.049   2.992   4.933
  163DOPC   C1B 1953  10.971   3.321   6.483
  163DOPC   D2B 1954  10.851   3.131   6.032
  163DOPC   C3B 1955  10.709   3.188   5.593
  163DOPC   C4B 1956  10.662   3.496   5.205
  164DOPC   NC3 1957   4.861  10.010   7.458
  164DOPC   PO4 1958   4.975   0.151   7.098
  164DOPC   GL1 1959   4.721   0.097   6.714
  164DOPC   GL2 1960   4.578   9.893   6.874
  164DOPC   C1A 1961   4.603   9.947   6.292
  164DOPC   D2A 1962   4.507   9.644   5.872
  164DOPC   C3A 1963   4.555   9.619   5.387
  164DOPC   C4A 1964   4.733   9.771   4.932
  164DOPC   C1B 1965   4.605   9.530   6.608
  164DOPC   D2B 1966   4.681   9.258   6.184
  164DOPC   C3B 1967   4.634   9.153   5.722
  164DOPC   C4B 1968   4.705   8.957   5.264
  165DOPC   NC3 1969   4.428   9.182   7.476
  165DOPC   PO4 1970   4.120   9.294   7.252
  165DOPC   GL1 1971   4.428   9.177   6.951
  165DOPC   GL2 1972   4.412   8.892   7.087
  165DOPC   C1A 1973   4.416   9.011   6.533
  165DOPC   D2A 1974   4.408   8.768   6.081
  165DOPC   C3A 1975   4.251   8.840   5.634
  165DOPC   C4A 1976   4.209   9.006   5.168
  165DOPC   C1B 1977   4.231   8.610   6.777
  165DOPC   D2B 1978   4.098   8.387   6.340
  165DOPC   C3B 1979   4.025   8.445   5.873
  165DOPC   C4B 1980   3.951   8.494   5.380
  166DOPC   NC3 1981   6.063   1.909   7.364
  166DOPC   PO4 1982   5.671   1.937   7.268
  166DOPC   GL1 1983   5.706   2.163   6.884
  166DOPC   GL2 1984   5.996   2.151   6.960
  166DOPC   C1A 1985   5.722   2.041   6.439
  166DOPC   D2A 1986   5.689   1.915   5.953
  166DOPC   C3A 1987   5.503   2.173   5.598
  166DOPC   C4A 1988   5.118   2.304   5.289
  166DOPC   C1B 1989   6.173   1.924   6.647
  166DOPC   D2B 1990   6.295   1.997   6.178
  166DOPC   C3B 1991   6.131   2.025   5.736
  166DOPC   C4B 1992   5.931   2.016   5.287
  167DOPC   NC3 1993   6.372   5.431   7.226
  167DOPC   PO4 1994   6.071   5.201   7.364
  167DOPC   GL1 1995   6.055   5.119   6.924
  167DOPC   GL2 1996   6.009   5.423   6.893
  167DOPC   C1A 1997   6.030   4.838   6.564
  167DOPC   D2A 1998   6.056   4.615   6.109
  167DOPC   C3A 1999   5.944   4.776   5.683
  167DOPC   C4A 2000   5.686   4.923   5.279
  167DOPC   C1B 2001   5.882   5.445   6.465
  167DOPC   D2B 2002   5.713   5.467   5.983
  167DOPC   C3B 2003   5.809   5.383   5.527
  167DOPC   C4B 2004   5.990   5.298   5.076
  168DOPC   NC3 2005   6.377   7.974   7.444
  168DOPC   PO4 2006   6.086   7.925   7.164
  168DOPC   GL1 2007   5.938   7.932   6.781
  168DOPC   GL2 2008   5.771   7.678   6.821
  168DOPC   C1A 2009   6.125   7.988   6.383
  168DOPC   D2A 2010   6.154   8.081   5.886
  168DOPC   C3A 2011   5.959   8.203   5.467
  168DOPC   C4A 2012   5.536   8.289   5.197
  168DOPC   C1B 2013   5.883   7.563   6.411
  168DOPC   D2B 2014   6.057   7.585   5.934
  168DOPC   C3B 2015   5.960   7.694   5.466
  168DOPC   C4B 2016   5.898   7.971   5.026
  169DOPC   NC3 2017  12.034   8.295   7.427
  169DOPC   PO4 2018  11.695   8.424   7.268
  169DOPC   GL1 2019  11.795   8.258   6.900
  169DOPC   GL2 2020  12.069   8.422   6.924
  169DOPC   C1A 2021  11.748   8.046   6.502
  169DOPC   D2A 2022  11.882   7.911   6.038
  169DOPC   C3A 2023  11.735   8.212   5.726
  169DOPC   C4A 2024  11.464   8.567   5.538
  169DOPC   C1B 2025  12.224   8.235   6.556
  169DOPC   D2B 2026  12.399   7.963   6.159
  169DOPC   C3B 2027  12.244   8.090   5.732
  169DOPC   C4B 2028  12.024   8.228   5.308
  170DOPC   NC3 2029   9.362   2.221   7.161
  170DOPC   PO4 2030   8.960   2.186   7.162
  170DOPC   GL1 2031   8.815   2.133   6.737
  170DOPC   GL2 2032   8.918   2.436   6.698
  170DOPC   C1A 2033   8.696   2.214   6.320
  170DOPC   D2A 2034   8.616   2.395   5.874
  170DOPC   C3A 2035   8.955   2.579   5.602
  170DOPC   C4A 2036   9.175   2.639   5.159
  170DOPC   C1B 2037   8.713   2.729   6.386
  170DOPC   D2B 2038   8.377   3.045   6.144
  170DOPC   C3B 2039   8.370   2.821   5.727
  170DOPC   C4B 2040   8.465   2.487   5.375
  171DOPC   NC3 2041  16.266   8.332   7.281
  171DOPC   PO4 2042  16.267   7.944   7.377
  171DOPC   GL1 2043  16.347   7.727   7.020
  171DOPC   GL2 2044  16.627   7.797   6.951
  171DOPC   C1A 2045  16.222   7.815   6.615
  171DOPC   D2A 2046  16.293   8.101   6.203
  171DOPC   C3A 2047  16.384   8.168   5.742
  171DOPC   C4A 2048  16.488   8.223   5.262
  171DOPC   C1B 2049  16.697   7.955   6.505
  171DOPC   D2B 2050  16.719   7.897   5.989
  171DOPC   C3B 2051  16.890   8.131   5.597
  171DOPC   C4B 2052  16.994   8.354   5.148
  172DOPC   NC3 2053   2.323   0.312   7.652
  172DOPC   PO4 2054   2.659   0.389   7.435
  172DOPC   GL1 2055   2.612   0.461   7.016
  172DOPC   GL2 2056   2.839   0.613   6.925
  172DOPC   C1A 2057   2.430   0.368   6.610
  172DOPC   D2A 2058   2.438   0.337   6.096
  172DOPC   C3A 2059   2.560   0.286   5.630
  172DOPC   C4A 2060   2.666   0.420   5.162
  172DOPC   C1B 2061   2.894   0.513   6.458
  172DOPC   D2B 2062   2.932   0.465   5.944
  172DOPC   C3B 2063   3.182   0.487   5.524
  172DOPC   C4B 2064   3.530   0.443   5.168
  173DOPC   NC3 2065  11.497   3.064   7.239
  173DOPC   PO4 2066  11.247   2.745   7.258
  173DOPC   GL1 2067  11.459   2.696   6.943
  173DOPC   GL2 2068  11.648   2.492   6.977
  173DOPC   C1A 2069  11.229   2.707   6.578
  173DOPC   D2A 2070  10.960   2.651   6.156
  173DOPC   C3A 2071  10.895   2.697   5.690
  173DOPC   C4A 2072  10.841   2.705   5.190
  173DOPC   C1B 2073  11.598   2.325   6.585
  173DOPC   D2B 2074  11.510   2.225   6.118
  173DOPC   C3B 2075  11.369   2.520   5.794
  173DOPC   C4B 2076  11.321   2.741   5.364
  174DOPC   NC3 2077  11.576   4.557   7.140
  174DOPC   PO4 2078  11.835   4.294   7.294
  174DOPC   GL1 2079  11.875   4.031   6.977
  174DOPC   GL2 2080  12.169   4.058   6.922
  174DOPC   C1A 2081  11.683   4.178   6.603
  174DOPC   D2A 2082  11.594   4.369   6.148
  174DOPC   C3A 2083  11.610   4.143   5.728
  174DOPC   C4A 2084  11.630   3.913   5.275
  174DOPC   C1B 2085  12.184   4.171   6.460
  174DOPC   D2B 2086  12.186   4.194   5.943
  174DOPC   C3B 2087  12.053   4.204   5.476
  174DOPC   C4B 2088  11.899   4.275   4.999
  175DOPC   NC3 2089  10.014   3.279   7.465
  175DOPC   PO4 2090   9.894   3.429   7.112
  175DOPC   GL1 2091  10.008   3.203   6.723
  175DOPC   GL2 2092   9.713   3.148   6.701
  175DOPC   C1A 2093  10.008   3.073   6.295
  175DOPC   D2A 2094   9.742   3.098   5.859
  175DOPC   C3A 2095   9.716   3.284   5.411
  175DOPC   C4A 2096   9.726   3.441   4.936
  175DOPC   C1B 2097   9.500   3.016   6.321
  175DOPC   D2B 2098   9.139   2.931   5.963
  175DOPC   C3B 2099   9.374   2.910   5.552
  175DOPC   C4B 2100   9.848   2.802   5.433
  176DOPC   NC3 2101  18.539   0.081   7.313
  176DOPC   PO4 2102  18.549   0.388   7.047
  176DOPC   GL1 2103  18.576   0.294   6.619
  176DOPC   GL2 2104  18.807   0.469   6.635
  176DOPC   C1A 2105  18.659   0.093   6.231
  176DOPC   D2A 2106  18.675   9.932   5.754
  176DOPC   C3A 2107  18.598   0.248   5.408
  176DOPC   C4A 2108  18.431   0.553   5.045
  176DOPC   C1B 2109  18.935   0.530   6.216
  176DOPC   D2B 2110  19.022   0.700   5.742
  176DOPC   C3B 2111  19.360   0.756   5.398
  176DOPC   C4B 2112  19.361   0.756   4.898
  177DOPC   NC3 2113  16.891   5.083   7.193
  177DOPC   PO4 2114  16.995   4.700   7.116
  177DOPC   GL1 2115  16.850   4.782   6.702
  177DOPC   GL2 2116  16.967   5.046   6.734
  177DOPC   C1A 2117  16.743   4.673   6.247
  177DOPC   D2A 2118  16.644   4.620   5.775
  177DOPC   C3A 2119  16.955   4.732   5.437
  177DOPC   C4A 2120  17.355   4.696   5.156
  177DOPC   C1B 2121  17.116   5.011   6.341
  177DOPC   D2B 2122  17.122   4.780   5.912
  177DOPC   C3B 2123  17.330   5.030   5.581
  177DOPC   C4B 2124  17.235   5.224   5.137
  178DOPC   NC3 2125   9.611   1.302   7.429
  178DOPC   PO4 2126   9.982   1.190   7.322
  178DOPC   GL1 2127   9.839   1.542   7.066
  178DOPC   GL2 2128   9.749   1.313   6.917
  178DOPC   C1A 2129  10.004   1.655   6.682
  178DOPC   D2A 2130  10.050   1.641   6.181
  178DOPC   C3A 2131  10.047   1.533   5.720
  178DOPC   C4A 2132  10.064   1.480   5.222
  178DOPC   C1B 2133   9.673   1.296   6.474
  178DOPC   D2B 2134   9.555   1.314   5.985
  178DOPC   C3B 2135   9.474   1.119   5.550
  178DOPC   C4B 2136   9.349   0.940   5.100
  179DOPC   NC3 2137  12.173   7.978   7.031
  179DOPC   PO4 2138  12.453   7.706   7.124
  179DOPC   GL1 2139  12.790   7.859   6.845
  179DOPC   GL2 2140  12.596   8.098   6.818
  179DOPC   C1A 2141  13.005   7.866   6.443
  179DOPC   D2A 2142  13.026   7.959   5.953
  179DOPC   C3A 2143  12.719   7.943   5.588
  179DOPC   C4A 2144  12.313   7.816   5.298
  179DOPC   C1B 2145  12.705   8.297   6.431
  179DOPC   D2B 2146  12.684   8.345   5.941
  179DOPC   C3B 2147  12.533   8.458   5.519
  179DOPC   C4B 2148  12.604   8.509   5.044
  180DOPC   NC3 2149  15.098   2.450   7.699
  180DOPC   PO4 2150  15.213   2.504   7.322
  180DOPC   GL1 2151  14.972   2.487   6.959
  180DOPC   GL2 2152  14.804   2.706   7.076
  180DOPC   C1A 2153  14.946   2.448   6.504
  180DOPC   D2A 2154  14.715   2.365   6.054
  180DOPC   C3A 2155  14.815   2.387   5.592
  180DOPC   C4A 2156  14.994   2.482   5.132
  180DOPC   C1B 2157  14.554   2.756   6.713
  180DOPC   D2B 2158  14.388   2.750   6.243
  180DOPC   C3B 2159  14.582   2.819   5.817
  180DOPC   C4B 2160  14.800   2.887   5.380
  181DOPC   NC3 2161  16.999   2.554   7.117
  181DOPC   PO4 2162  17.397   2.510   7.094
  181DOPC   GL1 2163  17.480   2.808   6.811
  181DOPC   GL2 2164  17.181   2.839   6.786
  181DOPC   C1A 2165  17.487   2.678   6.381
  181DOPC   D2A 2166  17.515   2.787   5.888
  181DOPC   C3A 2167  17.639   2.807   5.424
  181DOPC   C4A 2168  17.635   2.829   4.921
  181DOPC   C1B 2169  16.992   2.598   6.462
  181DOPC   D2B 2170  16.919   2.507   5.976
  181DOPC   C3B 2171  17.190   2.505   5.599
  181DOPC   C4B 2172  17.388   2.456   5.162
  182DOPC   NC3 2173  17.327   3.360   7.332
  182DOPC   PO4 2174  17.195   3.001   7.226
  182DOPC   GL1 2175  16.938   3.181   6.925
  182DOPC   GL2 2176  17.026   3.464   6.974
  182DOPC   C1A 2177  16.967   3.105   6.480
  182DOPC   D2A 2178  17.052   2.999   5.991
  182DOPC   C3A 2179  17.238   3.099   5.560
  182DOPC   C4A 2180  17.453   3.246   5.131
  182DOPC   C1B 2181  17.158   3.569   6.567
  182DOPC   D2B 2182  17.239   3.743   6.104
  182DOPC   C3B 2183  17.115   3.587   5.680
  182DOPC   C4B 2184  16.999   3.427   5.232
  183DOPC   NC3 2185  17.125   1.103   7.356
  183DOPC   PO4 2186  17.114   0.920   7.009
  183DOPC   GL1 2187  17.321   1.129   6.713
  183DOPC   GL2 2188  17.541   1.278   6.843
  183DOPC   C1A 2189  17.328   1.296   6.299
  183DOPC   D2A 2190  17.422   1.355   5.819
  183DOPC   C3A 2191  17.384   1.084   5.439
  183DOPC   C4A 2192  17.065   0.727   5.361
  183DOPC   C1B 2193  17.788   1.272   6.467
  183DOPC   D2B 2194  17.925   1.248   5.974
  183DOPC   C3B 2195  17.822   1.321   5.508
  183DOPC   C4B 2196  17.456   1.563   5.255
  184DOPC   NC3 2197  11.959   5.190   7.520
  184DOPC   PO4 2198  11.917   5.563   7.382
  184DOPC   GL1 2199  12.086   5.446   6.981
  184DOPC   GL2 2200  11.905   5.187   7.030
  184DOPC   C1A 2201  12.157   5.346   6.533
  184DOPC   D2A 2202  12.228   5.218   6.045
  184DOPC   C3A 2203  12.062   5.103   5.608
  184DOPC   C4A 2204  11.880   5.019   5.146
  184DOPC   C1B 2205  12.020   4.878   6.717
  184DOPC   D2B 2206  12.052   4.650   6.241
  184DOPC   C3B 2207  11.879   4.608   5.788
  184DOPC   C4B 2208  11.665   4.569   5.336
  185DOPC   NC3 2209   7.279   9.304   7.257
  185DOPC   PO4 2210   7.530   9.063   7.455
  185DOPC   GL1 2211   7.642   9.002   7.042
  185DOPC   GL2 2212   7.716   9.302   7.005
  185DOPC   C1A 2213   7.416   9.075   6.651
  185DOPC   D2A 2214   7.264   9.309   6.228
  185DOPC   C3A 2215   7.294   9.382   5.757
  185DOPC   C4A 2216   7.494   9.401   5.293
  185DOPC   C1B 2217   7.560   9.554   6.628
  185DOPC   D2B 2218   7.332   9.845   6.263
  185DOPC   C3B 2219   7.291   9.889   5.786
  185DOPC   C4B 2220   7.186   9.818   5.294
  186DOPC   NC3 2221   1.480   8.227   7.498
  186DOPC   PO4 2222   1.514   7.891   7.277
  186DOPC   GL1 2223   1.608   7.829   6.870
  186DOPC   GL2 2224   1.497   7.522   6.873
  186DOPC   C1A 2225   1.469   8.174   6.579
  186DOPC   D2A 2226   1.232   8.317   6.149
  186DOPC   C3A 2227   1.270   8.005   5.791
  186DOPC   C4A 2228   1.431   7.694   5.422
  186DOPC   C1B 2229   1.649   7.391   6.442
  186DOPC   D2B 2230   1.816   7.342   5.949
  186DOPC   C3B 2231   1.927   7.504   5.506
  186DOPC   C4B 2232   2.134   7.622   5.051
  187DOPC   NC3 2233   0.189   1.138   7.439
  187DOPC   PO4 2234   0.049   1.439   7.223
  187DOPC   GL1 2235  19.985   1.143   6.930
  187DOPC   GL2 2236   0.240   0.989   6.998
  187DOPC   C1A 2237  19.983   1.233   6.493
  187DOPC   D2A 2238   0.129   1.370   6.023
  187DOPC   C3A 2239   0.426   1.464   5.662
  187DOPC   C4A 2240   0.661   1.432   5.233
  187DOPC   C1B 2241   0.307   0.863   6.594
  187DOPC   D2B 2242   0.295   0.777   6.099
  187DOPC   C3B 2243   0.337   0.947   5.651
  187DOPC   C4B 2244   0.390   0.911   5.154
  188DOPC   NC3 2245   3.594   1.187   7.594
  188DOPC   PO4 2246   3.473   0.952   7.295
  188DOPC   GL1 2247   3.669   1.004   6.871
  188DOPC   GL2 2248   3.404   1.172   6.844
  188DOPC   C1A 2249   3.877   1.120   6.469
  188DOPC   D2A 2250   4.049   1.208   5.993
  188DOPC   C3A 2251   3.888   1.196   5.542
  188DOPC   C4A 2252   3.658   1.292   5.107
  188DOPC   C1B 2253   3.398   1.222   6.417
  188DOPC   D2B 2254   3.558   1.070   5.981
  188DOPC   C3B 2255   3.448   1.391   5.666
  188DOPC   C4B 2256   3.446   1.729   5.319
  189DOPC   NC3 2257  18.086   7.232   7.487
  189DOPC   PO4 2258  18.362   7.229   7.199
  189DOPC   GL1 2259  18.167   7.412   6.872
  189DOPC   GL2 2260  17.878   7.437   6.997
  189DOPC   C1A 2261  18.224   7.256   6.449
  189DOPC   D2A 2262  18.234   7.098   5.962
  189DOPC   C3A 2263  18.238   7.216   5.489
  189DOPC   C4A 2264  18.193   7.397   5.018
  189DOPC   C1B 2265  17.629   7.562   6.640
  189DOPC   D2B 2266  17.440   7.545   6.177
  189DOPC   C3B 2267  17.581   7.427   5.740
  189DOPC   C4B 2268  17.762   7.352   5.278
  190DOPC   NC3 2269   6.742   7.833   7.107
  190DOPC   PO4 2270   6.465   7.551   7.172
  190DOPC   GL1 2271   6.232   7.595   6.830
  190DOPC   GL2 2272   6.382   7.867   6.789
  190DOPC   C1A 2273   6.389   7.522   6.452
  190DOPC   D2A 2274   6.580   7.455   6.011
  190DOPC   C3A 2275   6.459   7.675   5.619
  190DOPC   C4A 2276   6.351   7.807   5.153
  190DOPC   C1B 2277   6.628   7.971   6.417
  190DOPC   D2B 2278   6.676   8.103   5.926
  190DOPC   C3B 2279   6.463   8.182   5.503
  190DOPC   C4B 2280   6.331   8.295   5.026
  191DOPC   NC3 2281  18.223   9.020   7.510
  191DOPC   PO4 2282  17.844   9.136   7.455
  191DOPC   GL1 2283  17.759   8.837   7.151
  191DOPC   GL2 2284  18.077   8.809   7.105
  191DOPC   C1A 2285  17.780   8.940   6.726
  191DOPC   D2A 2286  17.765   9.133   6.256
  191DOPC   C3A 2287  17.816   9.096   5.779
  191DOPC   C4A 2288  17.850   8.899   5.318
  191DOPC   C1B 2289  18.280   9.006   6.712
  191DOPC   D2B 2290  18.268   9.168   6.212
  191DOPC   C3B 2291  18.324   8.999   5.759
  191DOPC   C4B 2292  18.298   8.690   5.362
  192DOPC   NC3 2293  13.446   5.470   7.270
  192DOPC   PO4 2294  13.449   5.795   7.040
  192DOPC   GL1 2295  13.626   5.847   6.680
  192DOPC   GL2 2296  13.818   5.617   6.668
  192DOPC   C1A 2297  13.363   5.677   6.364
  192DOPC   D2A 2298  13.222   5.458   5.931
  192DOPC   C3A 2299  13.193   5.306   5.474
  192DOPC   C4A 2300  13.272   5.070   5.035
  192DOPC   C1B 2301  13.816   5.510   6.208
  192DOPC   D2B 2302  13.708   5.439   5.711
  192DOPC   C3B 2303  13.673   5.131   5.343
  192DOPC   C4B 2304  13.761   4.867   4.917
  193DOPC   NC3 2305  12.746   3.088   7.477
  193DOPC   PO4 2306  13.108   3.168   7.317
  193DOPC   GL1 2307  12.935   2.980   6.962
  193DOPC   GL2 2308  12.801   2.769   7.134
  193DOPC   C1A 2309  12.864   2.919   6.502
  193DOPC   D2A 2310  12.922   2.906   5.994
  193DOPC   C3A 2311  12.771   3.161   5.622
  193DOPC   C4A 2312  12.586   2.986   5.194
  193DOPC   C1B 2313  12.628   2.550   6.788
  193DOPC   D2B 2314  12.498   2.364   6.351
  193DOPC   C3B 2315  12.627   2.488   5.918
  193DOPC   C4B 2316  12.850   2.672   5.522
  194DOPC   NC3 2317  15.400   4.383   7.632
  194DOPC   PO4 2318  15.328   4.097   7.355
  194DOPC   GL1 2319  15.379   4.383   7.026
  194DOPC   GL2 2320  15.628   4.500   7.173
  194DOPC   C1A 2321  15.503   4.413   6.596
  194DOPC   D2A 2322  15.654   4.533   6.123
  194DOPC   C3A 2323  15.653   4.431   5.650
  194DOPC   C4A 2324  15.689   4.192   5.205
  194DOPC   C1B 2325  15.940   4.432   6.846
  194DOPC   D2B 2326  15.995   4.198   6.399
  194DOPC   C3B 2327  16.014   4.199   5.927
  194DOPC   C4B 2328  16.133   4.290   5.456
  195DOPC   NC3 2329   5.870   6.966   7.437
  195DOPC   PO4 2330   5.619   7.069   7.146
  195DOPC   GL1 2331   5.877   6.846   6.933
  195DOPC   GL2 2332   5.927   6.616   7.134
  195DOPC   C1A 2333   5.965   6.765   6.503
  195DOPC   D2A 2334   6.171   6.657   6.045
  195DOPC   C3A 2335   6.073   6.713   5.578
  195DOPC   C4A 2336   5.829   6.764   5.136
  195DOPC   C1B 2337   5.716   6.423   6.805
  195DOPC   D2B 2338   5.666   6.321   6.315
  195DOPC   C3B 2339   5.806   6.350   5.861
  195DOPC   C4B 2340   5.831   6.310   5.361
  196DOPC   NC3 2341   4.063   0.236   7.360
  196DOPC   PO4 2342   4.439   0.189   7.220
  196DOPC   GL1 2343   4.349   0.316   6.785
  196DOPC   GL2 2344   4.245   0.538   6.947
  196DOPC   C1A 2345   4.209   0.349   6.336
  196DOPC   D2A 2346   4.045   0.336   5.849
  196DOPC   C3A 2347   4.048   0.386   5.378
  196DOPC   C4A 2348   4.161   0.444   4.899
  196DOPC   C1B 2349   3.952   0.661   6.640
  196DOPC   D2B 2350   3.928   0.736   6.128
  196DOPC   C3B 2351   4.166   0.795   5.693
  196DOPC   C4B 2352   4.392   0.740   5.243
  197DOPC   NC3 2353   6.353   8.845   7.687
  197DOPC   PO4 2354   6.613   8.711   7.412
  197DOPC   GL1 2355   6.667   8.681   6.999
  197DOPC   GL2 2356   6.865   8.459   6.972
  197DOPC   C1A 2357   6.496   8.774   6.601
  197DOPC   D2A 2358   6.383   8.933   6.139
  197DOPC   C3A 2359   6.388   9.081   5.692
  197DOPC   C4A 2360   6.377   9.212   5.210
  197DOPC   C1B 2361   6.862   8.432   6.522
  197DOPC   D2B 2362   6.805   8.598   6.046
  197DOPC   C3B 2363   6.792   8.778   5.615
  197DOPC   C4B 2364   6.791   8.929   5.148
  198DOPC   NC3 2365   7.850   4.353   7.273
  198DOPC   PO4 2366   7.518   4.522   7.116
  198DOPC   GL1 2367   7.473   4.352   6.703
  198DOPC   GL2 2368   7.792   4.329   6.714
  198DOPC   C1A 2369   7.454   4.413   6.254
  198DOPC   D2A 2370   7.586   4.399   5.760
  198DOPC   C3A 2371   7.842   4.510   5.361
  198DOPC   C4A 2372   8.209   4.667   5.044
  198DOPC   C1B 2373   7.968   4.348   6.291
  198DOPC   D2B 2374   8.095   4.335   5.788
  198DOPC   C3B 2375   8.261   4.179   5.359
  198DOPC   C4B 2376   8.591   3.910   5.080
  199DOPC   NC3 2377   7.161   4.676   7.422
  199DOPC   PO4 2378   7.336   5.029   7.370
  199DOPC   GL1 2379   7.270   4.997   6.934
  199DOPC   GL2 2380   7.128   5.281   7.016
  199DOPC   C1A 2381   7.358   4.891   6.475
  199DOPC   D2A 2382   7.331   4.815   5.955
  199DOPC   C3A 2383   7.483   4.861   5.498
  199DOPC   C4A 2384   7.819   4.996   5.143
  199DOPC   C1B 2385   7.204   5.386   6.618
  199DOPC   D2B 2386   7.274   5.304   6.131
  199DOPC   C3B 2387   7.274   5.298   5.660
  199DOPC   C4B 2388   7.462   5.357   5.201
  200DOPC   NC3 2389   3.807   6.617   7.297
  200DOPC   PO4 2390   3.435   6.663   7.144
  200DOPC   GL1 2391   3.360   6.625   6.700
  200DOPC   GL2 2392   3.389   6.325   6.759
  200DOPC   C1A 2393   3.474   6.699   6.258
  200DOPC   D2A 2394   3.704   6.895   5.863
  200DOPC   C3A 2395   3.562   6.900   5.413
  200DOPC   C4A 2396   3.456   6.921   4.921
  200DOPC   C1B 2397   3.679   6.284   6.444
  200DOPC   D2B 2398   3.946   6.341   6.024
  200DOPC   C3B 2399   3.894   6.504   5.577
  200DOPC   C4B 2400   3.854   6.648   5.090
  201DOPC   NC3 2401   6.417   2.337   7.539
  201DOPC   PO4 2402   6.732   2.517   7.368
  201DOPC   GL1 2403   6.440   2.464   7.054
  201DOPC   GL2 2404   6.422   2.154   7.113
  201DOPC   C1A 2405   6.498   2.368   6.625
  201DOPC   D2A 2406   6.706   2.321   6.172
  201DOPC   C3A 2407   6.505   2.371   5.755
  201DOPC   C4A 2408   6.324   2.393   5.298
  201DOPC   C1B 2409   6.657   1.915   6.796
  201DOPC   D2B 2410   6.780   1.830   6.302
  201DOPC   C3B 2411   6.645   1.883   5.832
  201DOPC   C4B 2412   6.439   1.882   5.364
  202DOPC   NC3 2413  15.646   1.779   7.435
  202DOPC   PO4 2414  16.005   1.787   7.256
  202DOPC   GL1 2415  15.945   1.883   6.855
  202DOPC   GL2 2416  16.097   2.146   6.884
  202DOPC   C1A 2417  15.769   1.804   6.448
  202DOPC   D2A 2418  15.702   1.826   5.947
  202DOPC   C3A 2419  15.781   1.783   5.486
  202DOPC   C4A 2420  15.797   1.581   5.023
  202DOPC   C1B 2421  16.094   2.189   6.435
  202DOPC   D2B 2422  16.099   2.178   5.918
  202DOPC   C3B 2423  16.276   2.077   5.479
  202DOPC   C4B 2424  16.614   1.987   5.113
  203DOPC   NC3 2425   6.686   7.150   7.396
  203DOPC   PO4 2426   6.696   6.801   7.200
  203DOPC   GL1 2427   6.560   6.717   6.814
  203DOPC   GL2 2428   6.276   6.667   6.847
  203DOPC   C1A 2429   6.580   6.573   6.388
  203DOPC   D2A 2430   6.662   6.426   5.918
  203DOPC   C3A 2431   6.748   6.443   5.465
  203DOPC   C4A 2432   6.846   6.386   4.994
  203DOPC   C1B 2433   6.177   6.311   6.560
  203DOPC   D2B 2434   6.277   6.148   6.085
  203DOPC   C3B 2435   6.274   6.236   5.609
  203DOPC   C4B 2436   6.297   6.484   5.158
  204DOPC   NC3 2437  16.630   7.647   7.457
  204DOPC   PO4 2438  16.973   7.657   7.246
  204DOPC   GL1 2439  16.877   7.376   6.987
  204DOPC   GL2 2440  16.592   7.338   7.094
  204DOPC   C1A 2441  16.891   7.501   6.570
  204DOPC   D2A 2442  16.940   7.437   6.082
  204DOPC   C3A 2443  16.895   7.271   5.640
  204DOPC   C4A 2444  16.922   7.066   5.174
  204DOPC   C1B 2445  16.425   7.337   6.699
  204DOPC   D2B 2446  16.446   7.549   6.252
  204DOPC   C3B 2447  16.451   7.449   5.808
  204DOPC   C4B 2448  16.478   7.262   5.359
  205DOPC   NC3 2449  13.422   0.564   7.515
  205DOPC   PO4 2450  13.822   0.522   7.419
  205DOPC   GL1 2451  13.749   0.578   6.979
  205DOPC   GL2 2452  13.460   0.443   7.051
  205DOPC   C1A 2453  13.613   0.671   6.550
  205DOPC   D2A 2454  13.326   0.658   6.122
  205DOPC   C3A 2455  13.402   0.581   5.658
  205DOPC   C4A 2456  13.611   0.467   5.221
  205DOPC   C1B 2457  13.179   0.409   6.686
  205DOPC   D2B 2458  12.931   0.324   6.242
  205DOPC   C3B 2459  13.039   0.212   5.794
  205DOPC   C4B 2460  13.337   0.076   5.421
  206DOPC   NC3 2461   9.056   0.740   7.232
  206DOPC   PO4 2462   9.351   0.474   7.281
  206DOPC   GL1 2463   9.550   0.537   6.880
  206DOPC   GL2 2464   9.298   0.704   6.805
  206DOPC   C1A 2465   9.520   0.396   6.456
  206DOPC   D2A 2466   9.447   0.148   6.023
  206DOPC   C3A 2467   9.309   0.256   5.582
  206DOPC   C4A 2468   9.225   0.430   5.115
  206DOPC   C1B 2469   9.301   0.881   6.391
  206DOPC   D2B 2470   9.144   0.997   5.920
  206DOPC   C3B 2471   9.063   0.723   5.531
  206DOPC   C4B 2472   8.814   0.304   5.372
  207DOPC   NC3 2473  16.148   7.454   7.716
  207DOPC   PO4 2474  16.179   7.417   7.319
  207DOPC   GL1 2475  16.016   7.437   6.907
  207DOPC   GL2 2476  15.751   7.388   7.041
  207DOPC   C1A 2477  15.983   7.402   6.444
  207DOPC   D2A 2478  15.772   7.415   5.988
  207DOPC   C3A 2479  16.011   7.212   5.636
  207DOPC   C4A 2480  16.162   6.845   5.339
  207DOPC   C1B 2481  15.571   7.241   6.673
  207DOPC   D2B 2482  15.392   7.114   6.219
  207DOPC   C3B 2483  15.525   7.025   5.768
  207DOPC   C4B 2484  15.621   7.088   5.286
  208DOPC   NC3 2485   4.864   6.132   7.431
  208DOPC   PO4 2486   4.545   6.133   7.194
  208DOPC   GL1 2487   4.628   6.281   6.831
  208DOPC   GL2 2488   4.897   6.099   6.847
  208DOPC   C1A 2489   4.717   6.305   6.416
  208DOPC   D2A 2490   4.847   6.347   5.927
  208DOPC   C3A 2491   5.060   6.073   5.597
  208DOPC   C4A 2492   5.093   5.805   5.171
  208DOPC   C1B 2493   5.154   6.045   6.456
  208DOPC   D2B 2494   5.372   5.881   6.012
  208DOPC   C3B 2495   5.376   5.645   5.583
  208DOPC   C4B 2496   5.450   5.410   5.131
  209DOPC   NC3 2497  11.209   5.278   7.384
  209DOPC   PO4 2498  11.532   5.049   7.295
  209DOPC   GL1 2499  11.523   4.926   6.864
  209DOPC   GL2 2500  11.355   5.161   6.812
  209DOPC   C1A 2501  11.616   4.812   6.444
  209DOPC   D2A 2502  11.735   5.038   6.015
  209DOPC   C3A 2503  11.553   5.011   5.580
  209DOPC   C4A 2504  11.366   5.006   5.116
  209DOPC   C1B 2505  11.378   5.261   6.373
  209DOPC   D2B 2506  11.359   5.384   5.878
  209DOPC   C3B 2507  11.230   5.409   5.415
  209DOPC   C4B 2508  11.030   5.661   5.030
  210DOPC   NC3 2509  18.715   0.946   7.227
  210DOPC   PO4 2510  18.417   1.193   7.116
  210DOPC   GL1 2511  18.661   1.121   6.762
  210DOPC   GL2 2512  18.557   0.824   6.795
  210DOPC   C1A 2513  18.746   1.163   6.318
  210DOPC   D2A 2514  18.799   1.173   5.829
  210DOPC   C3A 2515  18.792   1.380   5.413
  210DOPC   C4A 2516  18.816   1.530   4.937
  210DOPC   C1B 2517  18.496   0.692   6.377
  210DOPC   D2B 2518  18.540   0.483   5.907
  210DOPC   C3B 2519  18.528   0.771   5.531
  210DOPC   C4B 2520  18.493   1.066   5.127
  211DOPC   NC3 2521  14.914   8.913   7.474
  211DOPC   PO4 2522  14.781   8.621   7.223
  211DOPC   GL1 2523  15.024   8.530   6.833
  211DOPC   GL2 2524  15.097   8.831   6.894
  211DOPC   C1A 2525  15.053   8.456   6.365
  211DOPC   D2A 2526  14.990   8.443   5.859
  211DOPC   C3A 2527  14.980   8.336   5.389
  211DOPC   C4A 2528  14.913   8.323   4.889
  211DOPC   C1B 2529  15.040   8.952   6.470
  211DOPC   D2B 2530  14.938   8.934   5.976
  211DOPC   C3B 2531  15.115   8.828   5.548
  211DOPC   C4B 2532  15.196   8.717   5.071
  212DOPC   NC3 2533  19.129   4.564   7.264
  212DOPC   PO4 2534  18.977   4.432   6.923
  212DOPC   GL1 2535  19.330   4.572   6.799
  212DOPC   GL2 2536  19.507   4.419   6.981
  212DOPC   C1A 2537  19.402   4.661   6.351
  212DOPC   D2A 2538  19.352   4.849   5.873
  212DOPC   C3A 2539  19.025   4.824   5.515
  212DOPC   C4A 2540  18.625   4.598   5.301
  212DOPC   C1B 2541  19.638   4.263   6.603
  212DOPC   D2B 2542  19.728   4.241   6.101
  212DOPC   C3B 2543  19.542   4.406   5.690
  212DOPC   C4B 2544  19.505   4.747   5.316
  213DOPC   NC3 2545   4.677   2.657   7.354
  213DOPC   PO4 2546   5.009   2.669   7.141
  213DOPC   GL1 2547   4.857   2.865   6.835
  213DOPC   GL2 2548   4.570   2.904   6.917
  213DOPC   C1A 2549   4.856   3.067   6.457
  213DOPC   D2A 2550   5.020   3.173   6.009
  213DOPC   C3A 2551   4.785   3.189   5.601
  213DOPC   C4A 2552   4.530   3.168   5.178
  213DOPC   C1B 2553   4.322   3.055   6.542
  213DOPC   D2B 2554   4.081   3.155   6.085
  213DOPC   C3B 2555   4.034   3.280   5.622
  213DOPC   C4B 2556   3.997   3.601   5.230
  214DOPC   NC3 2557  15.857   0.970   7.173
  214DOPC   PO4 2558  16.216   0.957   7.356
  214DOPC   GL1 2559  16.331   1.151   7.004
  214DOPC   GL2 2560  16.097   1.358   7.015
  214DOPC   C1A 2561  16.413   0.982   6.600
  214DOPC   D2A 2562  16.262   0.751   6.174
  214DOPC   C3A 2563  16.181   0.858   5.720
  214DOPC   C4A 2564  16.132   1.048   5.246
  214DOPC   C1B 2565  16.081   1.404   6.569
  214DOPC   D2B 2566  16.120   1.277   6.070
  214DOPC   C3B 2567  15.902   1.297   5.643
  214DOPC   C4B 2568  15.629   1.141   5.248
  215DOPC   NC3 2569  17.464   0.169   7.409
  215DOPC   PO4 2570  17.260   0.219   7.064
  215DOPC   GL1 2571  17.268   0.470   6.736
  215DOPC   GL2 2572  17.447   0.685   6.791
  215DOPC   C1A 2573  17.165   0.416   6.304
  215DOPC   D2A 2574  17.213   0.458   5.803
  215DOPC   C3A 2575  17.165   0.242   5.380
  215DOPC   C4A 2576  17.165   0.069   4.908
  215DOPC   C1B 2577  17.476   0.817   6.367
  215DOPC   D2B 2578  17.591   0.843   5.865
  215DOPC   C3B 2579  17.557   0.613   5.438
  215DOPC   C4B 2580  17.382   0.588   4.967
  216DOPC   NC3 2581   3.075   1.817   7.493
  216DOPC   PO4 2582   2.800   1.564   7.339
  216DOPC   GL1 2583   2.822   1.635   6.918
  216DOPC   GL2 2584   2.940   1.920   6.957
  216DOPC   C1A 2585   2.958   1.442   6.529
  216DOPC   D2A 2586   3.072   1.400   6.028
  216DOPC   C3A 2587   2.970   1.582   5.586
  216DOPC   C4A 2588   2.836   1.818   5.161
  216DOPC   C1B 2589   2.871   1.949   6.512
  216DOPC   D2B 2590   2.792   1.844   6.022
  216DOPC   C3B 2591   2.627   1.986   5.595
  216DOPC   C4B 2592   2.342   2.162   5.223
  217DOPC   NC3 2593   0.493   7.375   7.486
  217DOPC   PO4 2594   0.672   7.211   7.165
  217DOPC   GL1 2595   0.525   7.216   6.741
  217DOPC   GL2 2596   0.513   7.510   6.744
  217DOPC   C1A 2597   0.541   7.090   6.296
  217DOPC   D2A 2598   0.468   6.981   5.805
  217DOPC   C3A 2599   0.560   6.752   5.383
  217DOPC   C4A 2600   0.803   6.572   4.972
  217DOPC   C1B 2601   0.443   7.607   6.321
  217DOPC   D2B 2602   0.564   7.502   5.848
  217DOPC   C3B 2603   0.423   7.648   5.417
  217DOPC   C4B 2604   0.137   7.765   5.016
  218DOPC   NC3 2605  11.562   8.914   7.291
  218DOPC   PO4 2606  11.592   9.294   7.160
  218DOPC   GL1 2607  11.435   9.207   6.808
  218DOPC   GL2 2608  11.364   8.924   6.847
  218DOPC   C1A 2609  11.657   9.108   6.430
  218DOPC   D2A 2610  11.655   8.788   6.033
  218DOPC   C3A 2611  11.439   9.050   5.701
  218DOPC   C4A 2612  11.255   9.189   5.267
  218DOPC   C1B 2613  11.272   8.803   6.434
  218DOPC   D2B 2614  11.139   8.665   5.973
  218DOPC   C3B 2615  11.002   8.812   5.550
  218DOPC   C4B 2616  10.862   8.922   5.103
  219DOPC   NC3 2617  13.450   2.914   7.681
  219DOPC   PO4 2618  13.099   2.750   7.599
  219DOPC   GL1 2619  13.240   2.727   7.187
  219DOPC   GL2 2620  13.527   2.728   7.239
  219DOPC   C1A 2621  13.143   2.588   6.767
  219DOPC   D2A 2622  13.020   2.481   6.281
  219DOPC   C3A 2623  13.251   2.515   5.864
  219DOPC   C4A 2624  13.579   2.596   5.487
  219DOPC   C1B 2625  13.639   2.685   6.801
  219DOPC   D2B 2626  13.534   2.515   6.328
  219DOPC   C3B 2627  13.729   2.344   5.924
  219DOPC   C4B 2628  13.957   2.259   5.486
  220DOPC   NC3 2629   1.143   9.701   7.696
  220DOPC   PO4 2630   1.116   9.890   7.343
  220DOPC   GL1 2631   1.251   9.691   7.054
  220DOPC   GL2 2632   1.011   9.513   7.007
  220DOPC   C1A 2633   1.288   9.766   6.647
  220DOPC   D2A 2634   1.143   9.681   6.201
  220DOPC   C3A 2635   1.345   9.722   5.807
  220DOPC   C4A 2636   1.538   9.805   5.364
  220DOPC   C1B 2637   0.803   9.629   6.627
  220DOPC   D2B 2638   0.645   9.774   6.171
  220DOPC   C3B 2639   0.843   9.682   5.754
  220DOPC   C4B 2640   1.132   9.460   5.399
  221DOPC   NC3 2641  10.574   7.663   7.626
  221DOPC   PO4 2642  10.840   7.495   7.376
  221DOPC   GL1 2643  10.756   7.582   6.969
  221DOPC   GL2 2644  10.477   7.478   6.953
  221DOPC   C1A 2645  10.818   7.650   6.547
  221DOPC   D2A 2646  10.770   7.687   6.047
  221DOPC   C3A 2647  10.625   7.494   5.645
  221DOPC   C4A 2648  10.419   7.424   5.197
  221DOPC   C1B 2649  10.268   7.630   6.572
  221DOPC   D2B 2650  10.246   7.661   6.058
  221DOPC   C3B 2651  10.092   7.479   5.635
  221DOPC   C4B 2652   9.952   7.192   5.251
  222DOPC   NC3 2653  18.344   6.462   7.378
  222DOPC   PO4 2654  18.070   6.749   7.300
  222DOPC   GL1 2655  17.959   7.010   7.006
  222DOPC   GL2 2656  18.190   6.947   6.844
  222DOPC   C1A 2657  17.775   7.072   6.619
  222DOPC   D2A 2658  17.711   7.081   6.115
  222DOPC   C3A 2659  17.822   6.979   5.658
  222DOPC   C4A 2660  17.964   6.855   5.193
  222DOPC   C1B 2661  18.146   6.755   6.441
  222DOPC   D2B 2662  18.015   6.629   5.977
  222DOPC   C3B 2663  18.153   6.524   5.532
  222DOPC   C4B 2664  18.396   6.328   5.130
  223DOPC   NC3 2665  14.712   3.415   7.518
  223DOPC   PO4 2666  15.028   3.648   7.432
  223DOPC   GL1 2667  15.214   3.756   7.030
  223DOPC   GL2 2668  15.309   3.457   7.020
  223DOPC   C1A 2669  15.124   3.856   6.584
  223DOPC   D2A 2670  14.989   3.899   6.097
  223DOPC   C3A 2671  14.982   3.887   5.621
  223DOPC   C4A 2672  14.962   3.893   5.122
  223DOPC   C1B 2673  15.435   3.450   6.585
  223DOPC   D2B 2674  15.402   3.561   6.085
  223DOPC   C3B 2675  15.274   3.449   5.634
  223DOPC   C4B 2676  15.115   3.378   5.156
  224DOPC   NC3 2677  14.808   6.858   7.545
  224DOPC   PO4 2678  15.013   7.186   7.436
  224DOPC   GL1 2679  14.910   7.033   7.091
  224DOPC   GL2 2680  14.792   6.781   7.065
  224DOPC   C1A 2681  14.715   7.232   6.772
  224DOPC   D2A 2682  14.808   7.232   6.286
  224DOPC   C3A 2683  15.003   7.077   5.891
  224DOPC   C4A 2684  15.128   6.983   5.420
  224DOPC   C1B 2685  14.684   6.737   6.616
  224DOPC   D2B 2686  14.581   6.785   6.120
  224DOPC   C3B 2687  14.722   6.704   5.689
  224DOPC   C4B 2688  14.937   6.423   5.349
  225DOPC   NC3 2689  14.534   1.937   7.349
  225DOPC   PO4 2690  14.725   2.294   7.338
  225DOPC   GL1 2691  14.540   2.360   6.934
  225DOPC   GL2 2692  14.378   2.111   6.957
  225DOPC   C1A 2693  14.478   2.266   6.499
  225DOPC   D2A 2694  14.331   2.010   6.071
  225DOPC   C3A 2695  14.408   2.060   5.590
  225DOPC   C4A 2696  14.654   2.097   5.163
  225DOPC   C1B 2697  14.396   1.786   6.643
  225DOPC   D2B 2698  14.449   1.531   6.215
  225DOPC   C3B 2699  14.390   1.588   5.740
  225DOPC   C4B 2700  14.347   1.639   5.239
  226DOPC   NC3 2701   8.575   5.750   7.260
  226DOPC   PO4 2702   8.933   5.573   7.162
  226DOPC   GL1 2703   9.248   5.719   6.840
  226DOPC   GL2 2704   8.977   5.842   6.774
  226DOPC   C1A 2705   9.346   5.612   6.408
  226DOPC   D2A 2706   9.444   5.499   5.920
  226DOPC   C3A 2707   9.355   5.473   5.446
  226DOPC   C4A 2708   9.175   5.152   5.099
  226DOPC   C1B 2709   8.788   5.708   6.430
  226DOPC   D2B 2710   9.009   5.744   6.004
  226DOPC   C3B 2711   8.991   5.832   5.559
  226DOPC   C4B 2712   8.973   5.688   5.100
  227DOPC   NC3 2713  19.827   7.289   7.137
  227DOPC   PO4 2714   0.201   7.386   7.073
  227DOPC   GL1 2715   0.072   7.449   6.694
  227DOPC   GL2 2716  19.785   7.398   6.674
  227DOPC   C1A 2717   0.079   7.236   6.323
  227DOPC   D2A 2718  19.964   7.049   5.882
  227DOPC   C3A 2719   0.073   7.276   5.493
  227DOPC   C4A 2720  19.812   7.363   5.082
  227DOPC   C1B 2721  19.659   7.467   6.229
  227DOPC   D2B 2722  19.593   7.494   5.735
  227DOPC   C3B 2723  19.476   7.656   5.315
  227DOPC   C4B 2724  19.562   7.739   4.830
  228DOPC   NC3 2725   1.868   7.041   7.231
  228DOPC   PO4 2726   2.142   6.767   7.232
  228DOPC   GL1 2727   2.235   6.786   6.799
  228DOPC   GL2 2728   2.363   7.057   6.896
  228DOPC   C1A 2729   2.406   6.727   6.379
  228DOPC   D2A 2730   2.576   6.769   5.904
  228DOPC   C3A 2731   2.627   6.868   5.449
  228DOPC   C4A 2732   2.595   7.229   5.100
  228DOPC   C1B 2733   2.707   7.047   6.610
  228DOPC   D2B 2734   2.967   6.821   6.232
  228DOPC   C3B 2735   3.059   6.892   5.759
  228DOPC   C4B 2736   3.077   6.993   5.261
  229DOPC   NC3 2737  10.956   1.861   7.463
  229DOPC   PO4 2738  11.011   2.239   7.312
  229DOPC   GL1 2739  11.206   2.323   6.907
  229DOPC   GL2 2740  11.401   2.110   6.996
  229DOPC   C1A 2741  11.117   2.243   6.453
  229DOPC   D2A 2742  11.012   2.184   5.960
  229DOPC   C3A 2743  11.077   2.240   5.487
  229DOPC   C4A 2744  11.243   2.380   5.036
  229DOPC   C1B 2745  11.375   1.851   6.653
  229DOPC   D2B 2746  11.277   1.777   6.171
  229DOPC   C3B 2747  11.394   1.898   5.734
  229DOPC   C4B 2748  11.463   1.953   5.253
  230DOPC   NC3 2749  14.407   0.424   7.489
  230DOPC   PO4 2750  14.687   0.714   7.497
  230DOPC   GL1 2751  14.533   0.707   7.088
  230DOPC   GL2 2752  14.222   0.680   7.153
  230DOPC   C1A 2753  14.507   0.610   6.635
  230DOPC   D2A 2754  14.446   0.603   6.113
  230DOPC   C3A 2755  14.572   0.705   5.656
  230DOPC   C4A 2756  14.660   0.803   5.171
  230DOPC   C1B 2757  14.068   0.847   6.749
  230DOPC   D2B 2758  14.029   0.908   6.233
  230DOPC   C3B 2759  14.061   0.777   5.765
  230DOPC   C4B 2760  14.190   0.562   5.329
  231DOPC   NC3 2761  11.943   6.569   7.487
  231DOPC   PO4 2762  12.213   6.330   7.295
  231DOPC   GL1 2763  12.442   6.583   7.022
  231DOPC   GL2 2764  12.192   6.769   7.023
  231DOPC   C1A 2765  12.471   6.596   6.592
  231DOPC   D2A 2766  12.279   6.731   6.167
  231DOPC   C3A 2767  12.406   6.547   5.771
  231DOPC   C4A 2768  12.304   6.338   5.351
  231DOPC   C1B 2769  11.979   6.721   6.606
  231DOPC   D2B 2770  11.814   6.549   6.141
  231DOPC   C3B 2771  11.964   6.265   5.777
  231DOPC   C4B 2772  11.940   5.955   5.380
  232DOPC   NC3 2773   9.160   6.334   7.511
  232DOPC   PO4 2774   9.474   6.351   7.266
  232DOPC   GL1 2775   9.619   6.452   6.908
  232DOPC   GL2 2776   9.887   6.428   7.035
  232DOPC   C1A 2777   9.548   6.424   6.469
  232DOPC   D2A 2778   9.360   6.352   6.012
  232DOPC   C3A 2779   9.366   6.173   5.575
  232DOPC   C4A 2780   9.365   6.022   5.097
  232DOPC   C1B 2781  10.026   6.309   6.652
  232DOPC   D2B 2782   9.990   6.377   6.157
  232DOPC   C3B 2783   9.848   6.322   5.704
  232DOPC   C4B 2784   9.815   6.238   5.201
  233DOPC   NC3 2785  12.433   3.716   7.211
  233DOPC   PO4 2786  12.361   3.397   7.445
  233DOPC   GL1 2787  12.520   3.249   7.070
  233DOPC   GL2 2788  12.775   3.417   7.121
  233DOPC   C1A 2789  12.412   3.448   6.675
  233DOPC   D2A 2790  12.222   3.564   6.206
  233DOPC   C3A 2791  12.364   3.477   5.762
  233DOPC   C4A 2792  12.488   3.491   5.290
  233DOPC   C1B 2793  12.930   3.360   6.717
  233DOPC   D2B 2794  13.089   3.319   6.234
  233DOPC   C3B 2795  13.188   3.430   5.790
  233DOPC   C4B 2796  13.030   3.516   5.329
  234DOPC   NC3 2797  14.626   1.191   7.360
  234DOPC   PO4 2798  14.327   1.456   7.410
  234DOPC   GL1 2799  14.095   1.331   7.030
  234DOPC   GL2 2800  14.260   1.097   7.099
  234DOPC   C1A 2801  14.101   1.335   6.573
  234DOPC   D2A 2802  13.979   1.409   6.087
  234DOPC   C3A 2803  13.952   1.347   5.625
  234DOPC   C4A 2804  13.935   1.302   5.126
  234DOPC   C1B 2805  14.596   1.091   6.823
  234DOPC   D2B 2806  14.517   1.040   6.344
  234DOPC   C3B 2807  14.408   1.116   5.902
  234DOPC   C4B 2808  14.346   1.127   5.407
  235DOPC   NC3 2809   6.272   0.613   7.353
  235DOPC   PO4 2810   6.459   0.953   7.230
  235DOPC   GL1 2811   6.637   1.048   6.858
  235DOPC   GL2 2812   6.850   0.822   6.854
  235DOPC   C1A 2813   6.417   0.940   6.494
  235DOPC   D2A 2814   6.274   0.619   6.131
  235DOPC   C3A 2815   6.354   0.547   5.671
  235DOPC   C4A 2816   6.398   0.518   5.182
  235DOPC   C1B 2817   6.807   0.610   6.439
  235DOPC   D2B 2818   6.804   0.420   5.957
  235DOPC   C3B 2819   6.838   0.577   5.505
  235DOPC   C4B 2820   6.829   0.736   5.019
  236DOPC   NC3 2821   4.720   4.981   7.203
  236DOPC   PO4 2822   4.343   5.004   7.354
  236DOPC   GL1 2823   4.102   5.057   6.957
  236DOPC   GL2 2824   4.402   5.054   6.857
  236DOPC   C1A 2825   4.026   5.008   6.512
  236DOPC   D2A 2826   4.213   5.037   6.041
  236DOPC   C3A 2827   4.189   4.885   5.600
  236DOPC   C4A 2828   4.145   4.612   5.183
  236DOPC   C1B 2829   4.529   4.909   6.449
  236DOPC   D2B 2830   4.586   4.689   5.994
  236DOPC   C3B 2831   4.492   4.457   5.586
  236DOPC   C4B 2832   4.693   4.135   5.261
  237DOPC   NC3 2833  12.932   5.344   7.440
  237DOPC   PO4 2834  12.975   5.624   7.157
  237DOPC   GL1 2835  13.140   5.538   6.772
  237DOPC   GL2 2836  13.395   5.401   6.802
  237DOPC   C1A 2837  12.949   5.365   6.391
  237DOPC   D2A 2838  12.757   5.239   5.933
  237DOPC   C3A 2839  12.513   5.365   5.548
  237DOPC   C4A 2840  12.175   5.431   5.188
  237DOPC   C1B 2841  13.440   5.181   6.408
  237DOPC   D2B 2842  13.541   5.022   5.944
  237DOPC   C3B 2843  13.341   4.805   5.567
  237DOPC   C4B 2844  12.939   4.746   5.271
  238DOPC   NC3 2845   6.677   1.351   7.451
  238DOPC   PO4 2846   6.293   1.461   7.491
  238DOPC   GL1 2847   6.136   1.317   7.116
  238DOPC   GL2 2848   6.431   1.408   7.025
  238DOPC   C1A 2849   6.051   1.287   6.691
  238DOPC   D2A 2850   6.031   1.097   6.219
  238DOPC   C3A 2851   6.255   1.042   5.812
  238DOPC   C4A 2852   6.510   0.967   5.392
  238DOPC   C1B 2853   6.517   1.454   6.579
  238DOPC   D2B 2854   6.593   1.409   6.078
  238DOPC   C3B 2855   6.508   1.432   5.611
  238DOPC   C4B 2856   6.368   1.425   5.129
  239DOPC   NC3 2857   1.220   1.995   7.447
  239DOPC   PO4 2858   0.955   2.297   7.455
  239DOPC   GL1 2859   0.932   2.370   7.001
  239DOPC   GL2 2860   1.034   2.062   6.997
  239DOPC   C1A 2861   1.045   2.471   6.572
  239DOPC   D2A 2862   1.157   2.533   6.076
  239DOPC   C3A 2863   1.096   2.454   5.597
  239DOPC   C4A 2864   1.044   2.221   5.147
  239DOPC   C1B 2865   1.062   1.969   6.561
  239DOPC   D2B 2866   1.088   1.967   6.041
  239DOPC   C3B 2867   1.192   1.915   5.572
  239DOPC   C4B 2868   1.355   1.800   5.099
  240DOPC   NC3 2869   2.878   3.317   7.672
  240DOPC   PO4 2870   2.844   2.965   7.477
  240DOPC   GL1 2871   2.902   2.935   7.011
  240DOPC   GL2 2872   3.194   2.882   7.079
  240DOPC   C1A 2873   2.945   3.009   6.558
  240DOPC   D2A 2874   3.047   3.129   6.057
  240DOPC   C3A 2875   3.102   3.417   5.663
  240DOPC   C4A 2876   3.088   3.766   5.292
  240DOPC   C1B 2877   3.442   2.919   6.695
  240DOPC   D2B 2878   3.652   2.936   6.232
  240DOPC   C3B 2879   3.539   3.129   5.810
  240DOPC   C4B 2880   3.553   3.348   5.358
  241DOPC   NC3 2881  13.374   3.918   7.489
  241DOPC   PO4 2882  13.175   3.687   7.238
  241DOPC   GL1 2883  13.333   3.884   6.907
  241DOPC   GL2 2884  13.526   4.061   7.049
  241DOPC   C1A 2885  13.227   4.100   6.522
  241DOPC   D2A 2886  13.278   4.350   6.078
  241DOPC   C3A 2887  13.441   4.286   5.635
  241DOPC   C4A 2888  13.657   4.095   5.232
  241DOPC   C1B 2889  13.653   4.321   6.702
  241DOPC   D2B 2890  13.748   4.616   6.290
  241DOPC   C3B 2891  13.804   4.619   5.816
  241DOPC   C4B 2892  13.880   4.603   5.334
  242DOPC   NC3 2893   9.700   7.196   7.511
  242DOPC   PO4 2894   9.361   7.233   7.300
  242DOPC   GL1 2895   9.539   7.195   6.916
  242DOPC   GL2 2896   9.796   7.294   7.038
  242DOPC   C1A 2897   9.734   7.228   6.515
  242DOPC   D2A 2898   9.895   7.275   6.062
  242DOPC   C3A 2899   9.667   7.157   5.677
  242DOPC   C4A 2900   9.340   7.055   5.309
  242DOPC   C1B 2901   9.772   7.665   6.774
  242DOPC   D2B 2902   9.787   7.756   6.279
  242DOPC   C3B 2903   9.635   7.653   5.833
  242DOPC   C4B 2904   9.583   7.535   5.349
  243DOPC   NC3 2905   3.528   5.245   7.391
  243DOPC   PO4 2906   3.222   5.415   7.195
  243DOPC   GL1 2907   3.440   5.356   6.866
  243DOPC   GL2 2908   3.713   5.409   6.998
  243DOPC   C1A 2909   3.423   5.325   6.420
  243DOPC   D2A 2910   3.385   5.156   5.953
  243DOPC   C3A 2911   3.317   4.949   5.538
  243DOPC   C4A 2912   3.306   4.779   5.068
  243DOPC   C1B 2913   3.858   5.475   6.615
  243DOPC   D2B 2914   3.895   5.402   6.121
  243DOPC   C3B 2915   3.807   5.239   5.683
  243DOPC   C4B 2916   3.766   4.962   5.272
  244DOPC   NC3 2917   7.254   4.170   7.368
  244DOPC   PO4 2918   6.868   4.245   7.303
  244DOPC   GL1 2919   7.078   4.374   6.964
  244DOPC   GL2 2920   7.164   4.070   6.913
  244DOPC   C1A 2921   7.002   4.509   6.556
  244DOPC   D2A 2922   6.937   4.477   6.062
  244DOPC   C3A 2923   7.100   4.455   5.624
  244DOPC   C4A 2924   7.324   4.427   5.188
  244DOPC   C1B 2925   7.207   4.034   6.472
  244DOPC   D2B 2926   7.232   4.030   5.962
  244DOPC   C3B 2927   7.391   3.999   5.523
  244DOPC   C4B 2928   7.693   4.060   5.138
  245DOPC   NC3 2929  17.429   8.872   7.537
  245DOPC   PO4 2930  17.281   8.691   7.206
  245DOPC   GL1 2931  17.356   8.932   6.899
  245DOPC   GL2 2932  17.190   9.170   6.961
  245DOPC   C1A 2933  17.362   8.865   6.465
  245DOPC   D2A 2934  17.368   8.967   5.984
  245DOPC   C3A 2935  17.388   8.849   5.530
  245DOPC   C4A 2936  17.463   8.661   5.073
  245DOPC   C1B 2937  16.998   9.175   6.554
  245DOPC   D2B 2938  16.892   8.906   6.131
  245DOPC   C3B 2939  16.961   9.088   5.688
  245DOPC   C4B 2940  17.061   9.369   5.280
  246DOPC   NC3 2941   5.978   7.418   7.182
  246DOPC   PO4 2942   6.227   7.100   7.108
  246DOPC   GL1 2943   6.161   7.167   6.682
  246DOPC   GL2 2944   5.881   7.243   6.757
  246DOPC   C1A 2945   6.137   7.145   6.223
  246DOPC   D2A 2946   5.895   7.137   5.786
  246DOPC   C3A 2947   6.011   7.192   5.334
  246DOPC   C4A 2948   6.261   7.014   4.940
  246DOPC   C1B 2949   5.618   7.147   6.414
  246DOPC   D2B 2950   5.409   7.232   5.957
  246DOPC   C3B 2951   5.498   7.267   5.488
  246DOPC   C4B 2952   5.598   7.212   4.999
  247DOPC   NC3 2953   0.252   7.931   7.404
  247DOPC   PO4 2954   0.189   8.260   7.171
  247DOPC   GL1 2955   0.450   8.277   6.840
  247DOPC   GL2 2956   0.682   8.158   6.982
  247DOPC   C1A 2957   0.398   8.114   6.431
  247DOPC   D2A 2958   0.328   7.983   5.964
  247DOPC   C3A 2959   0.259   8.181   5.546
  247DOPC   C4A 2960   0.190   8.317   5.072
  247DOPC   C1B 2961   0.786   7.872   6.652
  247DOPC   D2B 2962   0.874   7.859   6.141
  247DOPC   C3B 2963   0.748   7.965   5.684
  247DOPC   C4B 2964   0.635   8.094   5.209
  248DOPC   NC3 2965  15.979   5.432   7.388
  248DOPC   PO4 2966  15.771   5.472   7.053
  248DOPC   GL1 2967  16.165   5.471   6.905
  248DOPC   GL2 2968  16.163   5.784   6.922
  248DOPC   C1A 2969  16.158   5.321   6.489
  248DOPC   D2A 2970  16.188   5.147   6.017
  248DOPC   C3A 2971  16.134   5.311   5.574
  248DOPC   C4A 2972  16.201   5.473   5.102
  248DOPC   C1B 2973  16.087   5.827   6.473
  248DOPC   D2B 2974  16.107   5.713   5.974
  248DOPC   C3B 2975  16.146   5.979   5.573
  248DOPC   C4B 2976  15.924   6.353   5.298
  249DOPC   NC3 2977   2.455   3.275   7.313
  249DOPC   PO4 2978   2.102   3.143   7.176
  249DOPC   GL1 2979   2.265   3.033   6.781
  249DOPC   GL2 2980   2.523   3.171   6.840
  249DOPC   C1A 2981   2.481   2.878   6.410
  249DOPC   D2A 2982   2.713   2.739   5.999
  249DOPC   C3A 2983   2.699   3.053   5.660
  249DOPC   C4A 2984   2.736   3.379   5.289
  249DOPC   C1B 2985   2.606   3.371   6.429
  249DOPC   D2B 2986   2.693   3.518   5.947
  249DOPC   C3B 2987   2.637   3.812   5.577
  249DOPC   C4B 2988   2.662   4.136   5.202
  250DOPC   NC3 2989   8.627   6.301   7.149
  250DOPC   PO4 2990   8.970   6.105   7.139
  250DOPC   GL1 2991   9.269   6.173   6.830
  250DOPC   GL2 2992   9.184   6.462   6.832
  250DOPC   C1A 2993   9.143   6.082   6.394
  250DOPC   D2A 2994   8.869   6.228   5.963
  250DOPC   C3A 2995   8.594   6.149   5.566
  250DOPC   C4A 2996   8.336   6.022   5.143
  250DOPC   C1B 2997   9.039   6.564   6.416
  250DOPC   D2B 2998   9.047   6.768   5.964
  250DOPC   C3B 2999   8.990   6.526   5.570
  250DOPC   C4B 3000   8.914   6.222   5.181
  251DOPC   NC3 3001  10.679   0.522   7.247
  251DOPC   PO4 3002  11.025   0.430   7.060
  251DOPC   GL1 3003  10.871   0.088   6.818
  251DOPC   GL2 3004  10.632   0.124   6.987
  251DOPC   C1A 3005  10.646  -0.002   6.436
  251DOPC   D2A 3006  10.460   0.081   5.968
  251DOPC   C3A 3007  10.576   0.301   5.559
  251DOPC   C4A 3008  10.562   0.465   5.088
  251DOPC   C1B 3009  10.477   0.426   6.689
  251DOPC   D2B 3010  10.294   0.667   6.279
  251DOPC   C3B 3011  10.209   0.588   5.823
  251DOPC   C4B 3012  10.107   0.545   5.337
  252DOPC   NC3 3013   8.192   1.851   7.716
  252DOPC   PO4 3014   8.404   1.848   7.378
  252DOPC   GL1 3015   8.263   1.781   6.990
  252DOPC   GL2 3016   7.980   1.870   6.984
  252DOPC   C1A 3017   8.350   1.950   6.585
  252DOPC   D2A 3018   8.228   2.048   6.098
  252DOPC   C3A 3019   8.348   2.026   5.637
  252DOPC   C4A 3020   8.445   2.018   5.155
  252DOPC   C1B 3021   7.833   1.934   6.543
  252DOPC   D2B 3022   7.657   2.089   6.095
  252DOPC   C3B 3023   7.848   1.938   5.694
  252DOPC   C4B 3024   8.082   1.711   5.312
  253DOPC   NC3 3025   2.375   6.009   7.287
  253DOPC   PO4 3026   2.754   6.148   7.209
  253DOPC   GL1 3027   2.853   5.857   6.896
  253DOPC   GL2 3028   2.633   5.693   7.024
  253DOPC   C1A 3029   2.832   5.925   6.450
  253DOPC   D2A 3030   2.783   5.918   5.957
  253DOPC   C3A 3031   3.071   5.975   5.598
  253DOPC   C4A 3032   3.193   6.068   5.128
  253DOPC   C1B 3033   2.487   5.599   6.613
  253DOPC   D2B 3034   2.523   5.479   6.108
  253DOPC   C3B 3035   2.615   5.577   5.650
  253DOPC   C4B 3036   2.689   5.904   5.274
  254DOPC   NC3 3037  11.975   3.838   7.409
  254DOPC   PO4 3038  11.827   3.468   7.429
  254DOPC   GL1 3039  12.063   3.322   7.097
  254DOPC   GL2 3040  12.043   3.611   7.007
  254DOPC   C1A 3041  11.946   3.245   6.711
  254DOPC   D2A 3042  11.802   3.217   6.256
  254DOPC   C3A 3043  11.924   3.244   5.822
  254DOPC   C4A 3044  12.158   3.104   5.415
  254DOPC   C1B 3045  11.973   3.742   6.602
  254DOPC   D2B 3046  11.818   3.885   6.141
  254DOPC   C3B 3047  11.911   3.736   5.697
  254DOPC   C4B 3048  11.954   3.519   5.247
  255DOPC   NC3 3049   7.962   8.803   7.439
  255DOPC   PO4 3050   7.726   8.544   7.247
  255DOPC   GL1 3051   7.947   8.485   6.879
  255DOPC   GL2 3052   8.039   8.775   6.968
  255DOPC   C1A 3053   8.212   8.568   6.533
  255DOPC   D2A 3054   8.328   8.579   6.030
  255DOPC   C3A 3055   8.199   8.636   5.570
  255DOPC   C4A 3056   8.106   8.632   5.078
  255DOPC   C1B 3057   7.908   9.032   6.637
  255DOPC   D2B 3058   7.701   9.063   6.188
  255DOPC   C3B 3059   7.747   9.165   5.733
  255DOPC   C4B 3060   7.985   9.078   5.314
  256DOPC   NC3 3061  16.633   1.229   7.384
  256DOPC   PO4 3062  16.485   1.543   7.195
  256DOPC   GL1 3063  16.633   1.493   6.810
  256DOPC   GL2 3064  16.764   1.219   6.880
  256DOPC   C1A 3065  16.551   1.444   6.374
  256DOPC   D2A 3066  16.598   1.110   6.012
  256DOPC   C3A 3067  16.444   1.263   5.598
  256DOPC   C4A 3068  16.227   1.594   5.312
  256DOPC   C1B 3069  16.902   1.108   6.459
  256DOPC   D2B 3070  17.099   0.945   6.022
  256DOPC   C3B 3071  16.938   1.149   5.640
  256DOPC   C4B 3072  16.923   1.170   5.155
  257DOPC   NC3 3073   3.154   2.573   7.462
  257DOPC   PO4 3074   2.950   2.477   7.124
  257DOPC   GL1 3075   3.121   2.596   6.711
  257DOPC   GL2 3076   3.128   2.287   6.716
  257DOPC   C1A 3077   3.224   2.688   6.257
  257DOPC   D2A 3078   3.521   2.597   5.842
  257DOPC   C3A 3079   3.781   2.812   5.488
  257DOPC   C4A 3080   4.018   3.083   5.143
  257DOPC   C1B 3081   3.363   2.219   6.357
  257DOPC   D2B 3082   3.721   2.093   6.036
  257DOPC   C3B 3083   3.640   2.156   5.581
  257DOPC   C4B 3084   3.436   2.490   5.272
  258DOPC   NC3 3085   4.483   2.389   7.766
  258DOPC   PO4 3086   4.348   2.279   7.402
  258DOPC   GL1 3087   4.442   2.264   6.979
  258DOPC   GL2 3088   4.649   2.453   6.933
  258DOPC   C1A 3089   4.198   2.325   6.605
  258DOPC   D2A 3090   4.014   2.535   6.181
  258DOPC   C3A 3091   4.052   2.444   5.725
  258DOPC   C4A 3092   4.045   2.265   5.268
  258DOPC   C1B 3093   4.595   2.629   6.532
  258DOPC   D2B 3094   4.471   2.843   6.101
  258DOPC   C3B 3095   4.375   2.852   5.644
  258DOPC   C4B 3096   4.357   2.672   5.194
  259DOPC   NC3 3097  14.127   3.405   7.416
  259DOPC   PO4 3098  14.176   3.083   7.187
  259DOPC   GL1 3099  13.923   3.340   6.968
  259DOPC   GL2 3100  14.139   3.565   6.961
  259DOPC   C1A 3101  13.773   3.342   6.571
  259DOPC   D2A 3102  13.610   3.434   6.109
  259DOPC   C3A 3103  13.692   3.273   5.667
  259DOPC   C4A 3104  13.782   3.016   5.242
  259DOPC   C1B 3105  14.167   3.695   6.517
  259DOPC   D2B 3106  14.226   3.916   6.047
  259DOPC   C3B 3107  14.382   3.836   5.589
  259DOPC   C4B 3108  14.446   3.778   5.084
  260DOPC   NC3 3109  11.496   2.327   7.395
  260DOPC   PO4 3110  11.730   2.647   7.422
  260DOPC   GL1 3111  12.056   2.512   7.155
  260DOPC   GL2 3112  11.937   2.232   7.217
  260DOPC   C1A 3113  12.100   2.466   6.706
  260DOPC   D2A 3114  12.009   2.293   6.226
  260DOPC   C3A 3115  11.866   2.330   5.761
  260DOPC   C4A 3116  11.730   2.431   5.281
  260DOPC   C1B 3117  11.882   1.999   6.831
  260DOPC   D2B 3118  11.796   1.838   6.351
  260DOPC   C3B 3119  11.907   1.818   5.887
  260DOPC   C4B 3120  11.934   1.688   5.401
  261DOPC   NC3 3121   5.005   0.979   7.435
  261DOPC   PO4 3122   5.300   0.821   7.217
  261DOPC   GL1 3123   5.270   1.068   6.902
  261DOPC   GL2 3124   5.086   1.244   7.061
  261DOPC   C1A 3125   5.120   1.041   6.502
  261DOPC   D2A 3126   5.037   1.004   6.018
  261DOPC   C3A 3127   5.223   1.123   5.611
  261DOPC   C4A 3128   5.253   1.090   5.123
  261DOPC   C1B 3129   4.769   1.306   6.764
  261DOPC   D2B 3130   4.753   1.356   6.270
  261DOPC   C3B 3131   4.842   1.435   5.803
  261DOPC   C4B 3132   4.963   1.471   5.315
  262DOPC   NC3 3133   4.716   1.964   7.574
  262DOPC   PO4 3134   4.838   2.168   7.252
  262DOPC   GL1 3135   4.870   2.071   6.872
  262DOPC   GL2 3136   4.628   1.879   6.858
  262DOPC   C1A 3137   4.858   2.218   6.476
  262DOPC   D2A 3138   4.615   2.355   6.069
  262DOPC   C3A 3139   4.561   2.363   5.596
  262DOPC   C4A 3140   4.571   2.210   5.116
  262DOPC   C1B 3141   4.454   1.913   6.431
  262DOPC   D2B 3142   4.223   2.050   5.996
  262DOPC   C3B 3143   4.315   1.916   5.549
  262DOPC   C4B 3144   4.503   1.678   5.138
  263DOPC   NC3 3145   6.742   3.048   7.475
  263DOPC   PO4 3146   6.908   3.273   7.191
  263DOPC   GL1 3147   7.013   3.120   6.807
  263DOPC   GL2 3148   7.158   2.894   6.931
  263DOPC   C1A 3149   7.082   3.142   6.362
  263DOPC   D2A 3150   7.258   3.007   5.901
  263DOPC   C3A 3151   7.285   2.879   5.450
  263DOPC   C4A 3152   7.236   2.838   4.955
  263DOPC   C1B 3153   7.403   2.781   6.582
  263DOPC   D2B 3154   7.688   2.596   6.204
  263DOPC   C3B 3155   7.556   2.527   5.747
  263DOPC   C4B 3156   7.566   2.505   5.234
  264DOPC   NC3 3157   5.815   2.768   7.447
  264DOPC   PO4 3158   5.981   2.416   7.342
  264DOPC   GL1 3159   6.030   2.587   6.986
  264DOPC   GL2 3160   5.973   2.865   7.016
  264DOPC   C1A 3161   6.000   2.440   6.570
  264DOPC   D2A 3162   5.946   2.359   6.072
  264DOPC   C3A 3163   5.922   2.505   5.625
  264DOPC   C4A 3164   5.933   2.733   5.184
  264DOPC   C1B 3165   5.833   2.918   6.592
  264DOPC   D2B 3166   5.885   2.886   6.083
  264DOPC   C3B 3167   5.795   3.011   5.626
  264DOPC   C4B 3168   5.598   3.121   5.170
  265DOPC   NC3 3169  17.366   5.033   7.381
  265DOPC   PO4 3170  17.357   5.103   6.986
  265DOPC   GL1 3171  17.294   4.714   6.740
  265DOPC   GL2 3172  17.591   4.684   6.783
  265DOPC   C1A 3173  17.373   4.575   6.320
  265DOPC   D2A 3174  17.607   4.637   5.856
  265DOPC   C3A 3175  17.817   4.939   5.522
  265DOPC   C4A 3176  18.102   5.269   5.253
  265DOPC   C1B 3177  17.821   4.801   6.408
  265DOPC   D2B 3178  18.058   4.917   5.969
  265DOPC   C3B 3179  18.352   4.952   5.582
  265DOPC   C4B 3180  18.597   5.083   5.155
  266DOPC   NC3 3181   9.214   1.984   7.619
  266DOPC   PO4 3182   9.210   1.742   7.305
  266DOPC   GL1 3183   9.208   1.875   6.880
  266DOPC   GL2 3184   8.948   1.709   6.862
  266DOPC   C1A 3185   9.207   2.081   6.480
  266DOPC   D2A 3186   9.106   2.229   6.003
  266DOPC   C3A 3187   8.978   2.077   5.568
  266DOPC   C4A 3188   8.888   2.229   5.104
  266DOPC   C1B 3189   8.799   1.730   6.431
  266DOPC   D2B 3190   8.702   1.842   5.939
  266DOPC   C3B 3191   8.660   1.656   5.484
  266DOPC   C4B 3192   8.576   1.531   5.001
  267DOPC   NC3 3193   1.533   7.416   7.392
  267DOPC   PO4 3194   1.383   7.101   7.202
  267DOPC   GL1 3195   1.507   7.002   6.816
  267DOPC   GL2 3196   1.758   7.169   6.818
  267DOPC   C1A 3197   1.684   6.845   6.448
  267DOPC   D2A 3198   1.984   6.860   6.049
  267DOPC   C3A 3199   1.832   6.936   5.612
  267DOPC   C4A 3200   1.601   6.926   5.176
  267DOPC   C1B 3201   2.091   7.134   6.524
  267DOPC   D2B 3202   2.372   7.165   6.127
  267DOPC   C3B 3203   2.282   7.162   5.665
  267DOPC   C4B 3204   2.091   7.131   5.198
  268DOPC   NC3 3205  14.436   9.029   7.276
  268DOPC   PO4 3206  14.755   9.131   7.055
  268DOPC   GL1 3207  14.678   8.800   6.749
  268DOPC   GL2 3208  14.437   8.738   6.917
  268DOPC   C1A 3209  14.597   8.710   6.304
  268DOPC   D2A 3210  14.510   8.603   5.803
  268DOPC   C3A 3211  14.643   8.728   5.360
  268DOPC   C4A 3212  14.861   9.123   5.130
  268DOPC   C1B 3213  14.187   8.500   6.657
  268DOPC   D2B 3214  14.155   8.463   6.160
  268DOPC   C3B 3215  14.002   8.696   5.777
  268DOPC   C4B 3216  13.843   8.921   5.365
  269DOPC   NC3 3217   1.070   9.049   7.441
  269DOPC   PO4 3218   1.340   9.250   7.210
  269DOPC   GL1 3219   1.336   8.938   6.869
  269DOPC   GL2 3220   1.091   8.844   7.012
  269DOPC   C1A 3221   1.195   8.776   6.470
  269DOPC   D2A 3222   1.048   8.783   5.994
  269DOPC   C3A 3223   1.236   8.868   5.562
  269DOPC   C4A 3224   1.542   8.678   5.201
  269DOPC   C1B 3225   0.914   9.119   6.709
  269DOPC   D2B 3226   0.825   9.272   6.233
  269DOPC   C3B 3227   0.847   9.187   5.765
  269DOPC   C4B 3228   0.794   9.061   5.294
  270DOPC   NC3 3229   9.747   3.741   7.506
  270DOPC   PO4 3230  10.142   3.778   7.433
  270DOPC   GL1 3231  10.244   3.731   6.981
  270DOPC   GL2 3232   9.957   3.876   6.977
  270DOPC   C1A 3233  10.150   3.631   6.557
  270DOPC   D2A 3234   9.799   3.514   6.216
  270DOPC   C3A 3235   9.690   3.632   5.775
  270DOPC   C4A 3236   9.583   3.773   5.311
  270DOPC   C1B 3237   9.697   3.868   6.597
  270DOPC   D2B 3238   9.433   3.892   6.156
  270DOPC   C3B 3239   9.386   4.058   5.699
  270DOPC   C4B 3240   9.306   4.234   5.224
  271DOPC   NC3 3241   0.449   4.794   7.246
  271DOPC   PO4 3242   0.261   5.017   7.516
  271DOPC   GL1 3243   0.034   5.056   7.149
  271DOPC   GL2 3244   0.309   5.211   7.062
  271DOPC   C1A 3245   0.072   4.983   6.717
  271DOPC   D2A 3246   0.232   4.992   6.234
  271DOPC   C3A 3247   0.323   4.818   5.795
  271DOPC   C4A 3248   0.472   4.591   5.369
  271DOPC   C1B 3249   0.467   5.270   6.642
  271DOPC   D2B 3250   0.539   5.398   6.171
  271DOPC   C3B 3251   0.670   5.185   5.771
  271DOPC   C4B 3252   0.397   5.103   5.360
  272DOPC   NC3 3253   4.962   8.231   7.157
  272DOPC   PO4 3254   4.729   8.554   7.245
  272DOPC   GL1 3255   4.645   8.430   6.859
  272DOPC   GL2 3256   4.546   8.151   6.919
  272DOPC   C1A 3257   4.599   8.434   6.439
  272DOPC   D2A 3258   4.469   8.223   6.017
  272DOPC   C3A 3259   4.358   8.164   5.570
  272DOPC   C4A 3260   4.322   7.977   5.118
  272DOPC   C1B 3261   4.389   7.970   6.526
  272DOPC   D2B 3262   4.086   7.888   6.124
  272DOPC   C3B 3263   4.085   7.737   5.673
  272DOPC   C4B 3264   3.916   7.664   5.201
  273DOPC   NC3 3265  19.361   7.863   7.178
  273DOPC   PO4 3266  19.444   7.541   6.956
  273DOPC   GL1 3267  19.314   7.477   6.544
  273DOPC   GL2 3268  19.125   7.720   6.594
  273DOPC   C1A 3269  19.183   7.489   6.121
  273DOPC   D2A 3270  19.158   7.747   5.718
  273DOPC   C3A 3271  18.909   7.755   5.343
  273DOPC   C4A 3272  18.430   7.758   5.272
  273DOPC   C1B 3273  19.001   7.954   6.206
  273DOPC   D2B 3274  19.022   8.240   5.778
  273DOPC   C3B 3275  18.744   8.248   5.393
  273DOPC   C4B 3276  18.326   8.238   5.115
  274DOPC   NC3 3277  19.804   8.587   7.347
  274DOPC   PO4 3278  19.669   8.264   7.144
  274DOPC   GL1 3279  19.932   8.239   6.774
  274DOPC   GL2 3280  19.947   8.549   6.843
  274DOPC   C1A 3281  19.851   8.289   6.335
  274DOPC   D2A 3282  19.704   8.494   5.879
  274DOPC   C3A 3283  19.690   8.538   5.395
  274DOPC   C4A 3284  19.725   8.513   4.898
  274DOPC   C1B 3285  19.827   8.794   6.458
  274DOPC   D2B 3286  19.794   9.018   5.999
  274DOPC   C3B 3287  19.782   9.035   5.529
  274DOPC   C4B 3288  19.569   8.979   5.097
  275DOPC   NC3 3289  16.440   1.978   7.452
  275DOPC   PO4 3290  16.805   1.908   7.311
  275DOPC   GL1 3291  16.539   2.026   6.995
  275DOPC   GL2 3292  16.770   2.200   6.936
  275DOPC   C1A 3293  16.385   1.850   6.633
  275DOPC   D2A 3294  16.212   1.763   6.174
  275DOPC   C3A 3295  16.485   1.723   5.794
  275DOPC   C4A 3296  16.783   1.608   5.409
  275DOPC   C1B 3297  16.825   2.122   6.525
  275DOPC   D2B 3298  16.827   2.001   6.044
  275DOPC   C3B 3299  16.802   2.141   5.592
  275DOPC   C4B 3300  16.854   2.438   5.187
  276DOPC   NC3 3301  14.091   5.498   7.495
  276DOPC   PO4 3302  13.929   5.640   7.157
  276DOPC   GL1 3303  14.220   5.697   6.880
  276DOPC   GL2 3304  14.209   5.997   6.918
  276DOPC   C1A 3305  14.261   5.614   6.444
  276DOPC   D2A 3306  14.396   5.599   5.962
  276DOPC   C3A 3307  14.184   5.512   5.552
  276DOPC   C4A 3308  13.855   5.586   5.190
  276DOPC   C1B 3309  14.048   6.055   6.511
  276DOPC   D2B 3310  14.016   5.972   6.015
  276DOPC   C3B 3311  14.125   6.019   5.553
  276DOPC   C4B 3312  14.144   6.006   5.060
  277DOPC   NC3 3313  14.569   8.250   7.500
  277DOPC   PO4 3314  14.498   7.895   7.328
  277DOPC   GL1 3315  14.395   8.036   6.962
  277DOPC   GL2 3316  14.453   8.320   7.026
  277DOPC   C1A 3317  14.292   7.997   6.531
  277DOPC   D2A 3318  14.001   7.981   6.119
  277DOPC   C3A 3319  14.100   8.192   5.718
  277DOPC   C4A 3320  14.156   8.482   5.319
  277DOPC   C1B 3321  14.659   8.316   6.634
  277DOPC   D2B 3322  14.605   8.220   6.145
  277DOPC   C3B 3323  14.610   8.112   5.686
  277DOPC   C4B 3324  14.521   8.134   5.193
  278DOPC   NC3 3325  18.813   9.659   7.192
  278DOPC   PO4 3326  19.036   9.982   7.299
  278DOPC   GL1 3327  18.971   0.184   6.922
  278DOPC   GL2 3328  18.756   9.977   6.865
  278DOPC   C1A 3329  19.104   0.138   6.508
  278DOPC   D2A 3330  19.246   9.816   6.166
  278DOPC   C3A 3331  19.176   9.751   5.723
  278DOPC   C4A 3332  18.979   9.881   5.301
  278DOPC   C1B 3333  18.863   9.703   6.517
  278DOPC   D2B 3334  18.851   9.513   6.048
  278DOPC   C3B 3335  18.788   9.429   5.588
  278DOPC   C4B 3336  18.496   9.651   5.269
  279DOPC   NC3 3337   0.511   1.597   7.431
  279DOPC   PO4 3338   0.561   1.298   7.158
  279DOPC   GL1 3339   0.508   1.394   6.733
  279DOPC   GL2 3340   0.228   1.489   6.791
  279DOPC   C1A 3341   0.600   1.773   6.507
  279DOPC   D2A 3342   0.694   2.227   6.282
  279DOPC   C3A 3343   0.704   2.213   5.818
  279DOPC   C4A 3344   0.699   1.919   5.423
  279DOPC   C1B 3345   0.098   1.718   6.420
  279DOPC   D2B 3346   0.300   1.890   5.991
  279DOPC   C3B 3347   0.250   2.146   5.595
  279DOPC   C4B 3348   0.393   2.270   5.137
  280DOPC   NC3 3349   6.604   9.471   7.649
  280DOPC   PO4 3350   6.800   9.205   7.415
  280DOPC   GL1 3351   6.865   9.221   6.958
  280DOPC   GL2 3352   6.950   9.505   6.982
  280DOPC   C1A 3353   6.880   9.102   6.512
  280DOPC   D2A 3354   6.854   9.115   5.995
  280DOPC   C3A 3355   6.816   9.330   5.564
  280DOPC   C4A 3356   6.695   9.625   5.174
  280DOPC   C1B 3357   6.972   9.609   6.544
  280DOPC   D2B 3358   6.914   9.630   6.037
  280DOPC   C3B 3359   6.790   9.857   5.645
  280DOPC   C4B 3360   6.774   0.144   5.246
  281DOPC   NC3 3361  15.124   0.480   7.373
  281DOPC   PO4 3362  14.811   0.296   7.209
  281DOPC   GL1 3363  14.969   0.599   6.914
  281DOPC   GL2 3364  15.242   0.441   6.923
  281DOPC   C1A 3365  14.956   0.775   6.492
  281DOPC   D2A 3366  14.905   0.905   6.011
  281DOPC   C3A 3367  15.081   0.700   5.621
  281DOPC   C4A 3368  15.012   0.437   5.210
  281DOPC   C1B 3369  15.377   0.446   6.495
  281DOPC   D2B 3370  15.392   0.467   5.988
  281DOPC   C3B 3371  15.351   0.258   5.557
  281DOPC   C4B 3372  15.278   0.015   5.127
  282DOPC   NC3 3373   1.144   4.126   7.534
  282DOPC   PO4 3374   0.882   3.962   7.279
  282DOPC   GL1 3375   1.012   4.218   6.998
  282DOPC   GL2 3376   0.879   4.469   6.935
  282DOPC   C1A 3377   1.116   4.187   6.588
  282DOPC   D2A 3378   1.058   4.276   6.101
  282DOPC   C3A 3379   1.170   4.254   5.634
  282DOPC   C4A 3380   1.345   4.153   5.180
  282DOPC   C1B 3381   0.820   4.575   6.487
  282DOPC   D2B 3382   0.764   4.671   5.988
  282DOPC   C3B 3383   0.927   4.697   5.547
  282DOPC   C4B 3384   1.088   4.582   5.087
  283DOPC   NC3 3385  17.128   4.216   7.342
  283DOPC   PO4 3386  17.207   3.862   7.166
  283DOPC   GL1 3387  16.964   3.925   6.812
  283DOPC   GL2 3388  16.848   4.186   6.955
  283DOPC   C1A 3389  16.847   3.904   6.370
  283DOPC   D2A 3390  16.759   3.873   5.880
  283DOPC   C3A 3391  16.755   3.845   5.402
  283DOPC   C4A 3392  16.888   3.830   4.911
  283DOPC   C1B 3393  16.928   4.356   6.571
  283DOPC   D2B 3394  17.038   4.276   6.080
  283DOPC   C3B 3395  16.972   4.259   5.618
  283DOPC   C4B 3396  16.953   4.307   5.126
  284DOPC   NC3 3397   7.479   7.175   7.502
  284DOPC   PO4 3398   7.141   6.961   7.485
  284DOPC   GL1 3399   7.083   7.043   7.082
  284DOPC   GL2 3400   7.371   7.161   7.044
  284DOPC   C1A 3401   7.040   6.970   6.671
  284DOPC   D2A 3402   7.038   6.757   6.227
  284DOPC   C3A 3403   7.089   6.735   5.757
  284DOPC   C4A 3404   7.176   6.732   5.258
  284DOPC   C1B 3405   7.400   7.357   6.640
  284DOPC   D2B 3406   7.428   7.518   6.155
  284DOPC   C3B 3407   7.370   7.451   5.682
  284DOPC   C4B 3408   7.274   7.269   5.223
  285DOPC   NC3 3409  15.742   9.957   7.423
  285DOPC   PO4 3410  16.077   0.146   7.320
  285DOPC   GL1 3411  16.078   0.161   6.902
  285DOPC   GL2 3412  15.770   0.138   6.883
  285DOPC   C1A 3413  16.208   0.024   6.510
  285DOPC   D2A 3414  16.123   9.957   6.010
  285DOPC   C3A 3415  15.945   0.106   5.590
  285DOPC   C4A 3416  15.742   0.202   5.154
  285DOPC   C1B 3417  15.708   0.052   6.438
  285DOPC   D2B 3418  15.603  10.001   5.944
  285DOPC   C3B 3419  15.550   9.784   5.518
  285DOPC   C4B 3420  15.460   9.506   5.111
  286DOPC   NC3 3421  11.346   8.078   7.235
  286DOPC   PO4 3422  11.710   7.905   7.226
  286DOPC   GL1 3423  11.819   7.748   6.849
  286DOPC   GL2 3424  11.976   7.519   6.978
  286DOPC   C1A 3425  12.136   7.735   6.547
  286DOPC   D2A 3426  12.236   7.451   6.159
  286DOPC   C3A 3427  12.152   7.565   5.731
  286DOPC   C4A 3428  11.791   7.761   5.464
  286DOPC   C1B 3429  12.027   7.241   6.618
  286DOPC   D2B 3430  11.902   7.067   6.150
  286DOPC   C3B 3431  11.954   7.027   5.674
  286DOPC   C4B 3432  11.874   6.920   5.179
  287DOPC   NC3 3433   0.771   4.426   7.784
  287DOPC   PO4 3434   0.807   4.479   7.388
  287DOPC   GL1 3435   0.564   4.206   7.078
  287DOPC   GL2 3436   0.368   4.372   7.118
  287DOPC   C1A 3437   0.616   4.140   6.653
  287DOPC   D2A 3438   0.586   4.047   6.155
  287DOPC   C3A 3439   0.674   4.176   5.707
  287DOPC   C4A 3440   0.791   4.199   5.226
  287DOPC   C1B 3441   0.381   4.587   6.737
  287DOPC   D2B 3442   0.368   4.502   6.244
  287DOPC   C3B 3443   0.204   4.309   5.850
  287DOPC   C4B 3444   0.262   4.122   5.386
  288DOPC   NC3 3445  11.112   3.841   7.281
  288DOPC   PO4 3446  11.507   3.862   7.222
  288DOPC   GL1 3447  11.607   3.690   6.863
  288DOPC   GL2 3448  11.630   3.429   6.994
  288DOPC   C1A 3449  11.513   3.598   6.439
  288DOPC   D2A 3450  11.475   3.480   5.956
  288DOPC   C3A 3451  11.523   3.430   5.489
  288DOPC   C4A 3452  11.505   3.390   4.992
  288DOPC   C1B 3453  11.425   3.172   6.698
  288DOPC   D2B 3454  11.329   3.030   6.214
  288DOPC   C3B 3455  11.264   3.064   5.746
  288DOPC   C4B 3456  11.109   3.189   5.282
  289DOPC   NC3 3457  13.360   6.248   7.674
  289DOPC   PO4 3458  13.212   6.164   7.302
  289DOPC   GL1 3459  13.382   6.250   6.937
  289DOPC   GL2 3460  13.256   6.097   6.729
  289DOPC   C1A 3461  13.669   6.347   6.640
  289DOPC   D2A 3462  13.793   6.453   6.172
  289DOPC   C3A 3463  13.754   6.316   5.730
  289DOPC   C4A 3464  13.690   6.179   5.267
  289DOPC   C1B 3465  13.360   6.159   6.287
  289DOPC   D2B 3466  13.509   5.898   5.894
  289DOPC   C3B 3467  13.406   5.774   5.456
  289DOPC   C4B 3468  13.326   5.589   5.009
  290DOPC   NC3 3469  18.726   7.333   7.612
  290DOPC   PO4 3470  19.040   7.455   7.382
  290DOPC   GL1 3471  18.985   7.452   6.958
  290DOPC   GL2 3472  19.137   7.214   6.847
  290DOPC   C1A 3473  18.690   7.468   6.638
  290DOPC   D2A 3474  18.618   7.392   6.148
  290DOPC   C3A 3475  18.660   7.440   5.680
  290DOPC   C4A 3476  18.679   7.296   5.203
  290DOPC   C1B 3477  19.001   7.134   6.415
  290DOPC   D2B 3478  18.952   7.078   5.901
  290DOPC   C3B 3479  19.125   7.277   5.490
  290DOPC   C4B 3480  19.137   7.450   5.006
  291DOPC   NC3 3481   0.960   6.830   7.255
  291DOPC   PO4 3482   1.195   6.656   6.985
  291DOPC   GL1 3483   0.999   6.724   6.626
  291DOPC   GL2 3484   0.850   6.453   6.663
  291DOPC   C1A 3485   1.264   6.615   6.286
  291DOPC   D2A 3486   1.640   6.485   6.000
  291DOPC   C3A 3487   1.422   6.650   5.617
  291DOPC   C4A 3488   1.090   6.815   5.306
  291DOPC   C1B 3489   1.052   6.179   6.379
  291DOPC   D2B 3490   1.332   5.968   6.030
  291DOPC   C3B 3491   1.339   6.163   5.608
  291DOPC   C4B 3492   1.323   6.371   5.157
  292DOPC   NC3 3493  11.394   0.234   7.313
  292DOPC   PO4 3494  11.713   0.086   7.139
  292DOPC   GL1 3495  11.697   0.297   6.753
  292DOPC   GL2 3496  11.392   0.334   6.743
  292DOPC   C1A 3497  11.748   0.316   6.309
  292DOPC   D2A 3498  11.678   0.299   5.795
  292DOPC   C3A 3499  11.467   0.142   5.384
  292DOPC   C4A 3500  11.379   0.088   4.886
  292DOPC   C1B 3501  11.245   0.378   6.289
  292DOPC   D2B 3502  11.130   0.291   5.786
  292DOPC   C3B 3503  11.019   0.554   5.391
  292DOPC   C4B 3504  10.945   0.822   4.968
  293DOPC   NC3 3505  17.147   5.850   7.468
  293DOPC   PO4 3506  17.119   5.540   7.218
  293DOPC   GL1 3507  17.419   5.697   6.992
  293DOPC   GL2 3508  17.410   5.997   7.089
  293DOPC   C1A 3509  17.412   5.721   6.550
  293DOPC   D2A 3510  17.401   5.829   6.060
  293DOPC   C3A 3511  17.497   5.732   5.609
  293DOPC   C4A 3512  17.641   5.674   5.144
  293DOPC   C1B 3513  17.410   6.218   6.681
  293DOPC   D2B 3514  17.243   6.312   6.210
  293DOPC   C3B 3515  17.304   6.217   5.740
  293DOPC   C4B 3516  17.399   6.127   5.268
  294DOPC   NC3 3517   9.026   7.136   6.957
  294DOPC   PO4 3518   8.775   7.386   7.156
  294DOPC   GL1 3519   8.961   7.710   6.973
  294DOPC   GL2 3520   9.235   7.564   6.993
  294DOPC   C1A 3521   8.834   7.679   6.540
  294DOPC   D2A 3522   8.789   7.761   6.053
  294DOPC   C3A 3523   8.723   7.591   5.635
  294DOPC   C4A 3524   8.593   7.525   5.178
  294DOPC   C1B 3525   9.272   7.405   6.582
  294DOPC   D2B 3526   9.355   7.276   6.109
  294DOPC   C3B 3527   9.211   7.394   5.682
  294DOPC   C4B 3528   9.095   7.607   5.256
  295DOPC   NC3 3529  11.552   4.088   7.657
  295DOPC   PO4 3530  11.281   4.294   7.440
  295DOPC   GL1 3531  11.249   4.222   7.001
  295DOPC   GL2 3532  11.135   4.528   6.984
  295DOPC   C1A 3533  11.219   3.967   6.623
  295DOPC   D2A 3534  11.292   3.937   6.119
  295DOPC   C3A 3535  11.202   3.810   5.668
  295DOPC   C4A 3536  11.141   3.713   5.182
  295DOPC   C1B 3537  11.139   4.767   6.587
  295DOPC   D2B 3538  11.252   4.872   6.091
  295DOPC   C3B 3539  11.337   4.571   5.740
  295DOPC   C4B 3540  11.250   4.245   5.368
  296DOPC   NC3 3541   6.406   3.893   7.321
  296DOPC   PO4 3542   6.428   3.489   7.349
  296DOPC   GL1 3543   6.562   3.464   6.959
  296DOPC   GL2 3544   6.498   3.735   6.865
  296DOPC   C1A 3545   6.603   3.235   6.603
  296DOPC   D2A 3546   6.484   3.199   6.129
  296DOPC   C3A 3547   6.670   3.228   5.698
  296DOPC   C4A 3548   6.918   3.190   5.271
  296DOPC   C1B 3549   6.449   3.696   6.417
  296DOPC   D2B 3550   6.464   3.664   5.916
  296DOPC   C3B 3551   6.541   3.688   5.455
  296DOPC   C4B 3552   6.756   3.639   5.018
  297DOPC   NC3 3553   8.927   6.986   7.437
  297DOPC   PO4 3554   8.966   6.672   7.188
  297DOPC   GL1 3555   8.842   6.751   6.790
  297DOPC   GL2 3556   8.658   6.535   6.741
  297DOPC   C1A 3557   8.887   7.049   6.444
  297DOPC   D2A 3558   8.840   7.229   5.975
  297DOPC   C3A 3559   8.856   7.045   5.517
  297DOPC   C4A 3560   8.941   6.743   5.111
  297DOPC   C1B 3561   8.519   6.671   6.335
  297DOPC   D2B 3562   8.530   6.822   5.852
  297DOPC   C3B 3563   8.506   6.628   5.424
  297DOPC   C4B 3564   8.532   6.468   4.948
  298DOPC   NC3 3565  13.489   7.463   7.491
  298DOPC   PO4 3566  13.854   7.492   7.340
  298DOPC   GL1 3567  13.683   7.547   6.933
  298DOPC   GL2 3568  13.467   7.343   7.026
  298DOPC   C1A 3569  13.416   7.569   6.568
  298DOPC   D2A 3570  13.212   7.510   6.106
  298DOPC   C3A 3571  13.228   7.603   5.651
  298DOPC   C4A 3572  13.596   7.583   5.328
  298DOPC   C1B 3573  13.440   7.069   6.683
  298DOPC   D2B 3574  13.590   7.022   6.204
  298DOPC   C3B 3575  13.470   7.180   5.778
  298DOPC   C4B 3576  13.343   7.142   5.304
  299DOPC   NC3 3577   4.208   5.373   7.701
  299DOPC   PO4 3578   4.005   5.394   7.360
  299DOPC   GL1 3579   4.237   5.465   6.979
  299DOPC   GL2 3580   4.494   5.395   7.123
  299DOPC   C1A 3581   4.345   5.397   6.536
  299DOPC   D2A 3582   4.405   5.538   6.045
  299DOPC   C3A 3583   4.264   5.454   5.608
  299DOPC   C4A 3584   3.930   5.482   5.232
  299DOPC   C1B 3585   4.774   5.343   6.773
  299DOPC   D2B 3586   4.786   5.307   6.267
  299DOPC   C3B 3587   4.670   5.161   5.836
  299DOPC   C4B 3588   4.582   5.112   5.352
  300DOPC   NC3 3589   5.335   4.985   7.461
  300DOPC   PO4 3590   5.147   5.288   7.296
  300DOPC   GL1 3591   5.111   5.036   6.957
  300DOPC   GL2 3592   5.342   4.851   7.013
  300DOPC   C1A 3593   5.071   4.985   6.520
  300DOPC   D2A 3594   5.085   4.885   6.018
  300DOPC   C3A 3595   4.905   4.760   5.590
  300DOPC   C4A 3596   4.708   4.646   5.140
  300DOPC   C1B 3597   5.521   4.721   6.622
  300DOPC   D2B 3598   5.548   4.641   6.120
  300DOPC   C3B 3599   5.424   4.587   5.654
  300DOPC   C4B 3600   5.244   4.652   5.191
  301DOPC   NC3 3601  12.286   5.888   7.551
  301DOPC   PO4 3602  12.443   5.581   7.334
  301DOPC   GL1 3603  12.404   5.929   7.086
  301DOPC   GL2 3604  12.100   5.901   7.100
  301DOPC   C1A 3605  12.503   6.111   6.707
  301DOPC   D2A 3606  12.476   6.231   6.217
  301DOPC   C3A 3607  12.429   6.023   5.801
  301DOPC   C4A 3608  12.431   5.843   5.348
  301DOPC   C1B 3609  12.080   5.832   6.660
  301DOPC   D2B 3610  12.259   5.737   6.190
  301DOPC   C3B 3611  12.098   5.621   5.751
  301DOPC   C4B 3612  11.735   5.474   5.440
  302DOPC   NC3 3613   2.948   4.930   7.622
  302DOPC   PO4 3614   3.177   4.900   7.298
  302DOPC   GL1 3615   3.057   5.073   6.893
  302DOPC   GL2 3616   2.838   4.866   6.971
  302DOPC   C1A 3617   3.085   4.944   6.446
  302DOPC   D2A 3618   3.201   4.684   6.022
  302DOPC   C3A 3619   2.955   4.626   5.637
  302DOPC   C4A 3620   2.826   4.629   5.171
  302DOPC   C1B 3621   2.708   4.643   6.622
  302DOPC   D2B 3622   2.721   4.546   6.130
  302DOPC   C3B 3623   2.557   4.333   5.736
  302DOPC   C4B 3624   2.364   4.584   5.358
  303DOPC   NC3 3625   1.010   3.485   7.546
  303DOPC   PO4 3626   1.287   3.660   7.323
  303DOPC   GL1 3627   1.227   3.547   6.954
  303DOPC   GL2 3628   1.049   3.783   6.844
  303DOPC   C1A 3629   1.405   3.383   6.614
  303DOPC   D2A 3630   1.306   3.457   6.127
  303DOPC   C3A 3631   1.390   3.454   5.662
  303DOPC   C4A 3632   1.367   3.452   5.158
  303DOPC   C1B 3633   0.994   3.758   6.388
  303DOPC   D2B 3634   0.998   3.814   5.892
  303DOPC   C3B 3635   1.081   3.794   5.425
  303DOPC   C4B 3636   0.979   3.801   4.931
  304DOPC   NC3 3637  16.247   4.955   7.405
  304DOPC   PO4 3638  16.427   5.280   7.245
  304DOPC   GL1 3639  16.573   5.237   6.863
  304DOPC   GL2 3640  16.813   5.425   6.894
  304DOPC   C1A 3641  16.600   5.101   6.453
  304DOPC   D2A 3642  16.701   5.104   5.957
  304DOPC   C3A 3643  16.553   5.028   5.516
  304DOPC   C4A 3644  16.505   4.597   5.255
  304DOPC   C1B 3645  16.966   5.474   6.480
  304DOPC   D2B 3646  17.108   5.407   5.998
  304DOPC   C3B 3647  16.942   5.343   5.557
  304DOPC   C4B 3648  16.698   5.323   5.128
  305DOPC   NC3 3649   1.122   4.948   7.248
  305DOPC   PO4 3650   0.787   5.153   7.175
  305DOPC   GL1 3651   0.783   4.961   6.774
  305DOPC   GL2 3652   1.072   4.853   6.792
  305DOPC   C1A 3653   0.854   5.051   6.333
  305DOPC   D2A 3654   1.136   5.000   5.905
  305DOPC   C3A 3655   1.165   5.203   5.471
  305DOPC   C4A 3656   1.121   5.425   5.007
  305DOPC   C1B 3657   1.279   4.766   6.381
  305DOPC   D2B 3658   1.435   4.580   5.923
  305DOPC   C3B 3659   1.432   4.727   5.467
  305DOPC   C4B 3660   1.399   4.987   5.036
  306DOPC   NC3 3661  13.167   2.308   7.397
  306DOPC   PO4 3662  13.162   1.935   7.255
  306DOPC   GL1 3663  13.220   2.155   6.910
  306DOPC   GL2 3664  13.467   2.310   7.021
  306DOPC   C1A 3665  13.277   2.085   6.478
  306DOPC   D2A 3666  13.332   2.013   5.994
  306DOPC   C3A 3667  13.481   2.078   5.550
  306DOPC   C4A 3668  13.644   2.228   5.092
  306DOPC   C1B 3669  13.736   2.183   6.681
  306DOPC   D2B 3670  13.824   1.912   6.258
  306DOPC   C3B 3671  13.900   1.849   5.797
  306DOPC   C4B 3672  13.858   1.783   5.307
  307DOPC   NC3 3673  17.402   7.581   7.507
  307DOPC   PO4 3674  17.624   7.786   7.253
  307DOPC   GL1 3675  17.336   7.737   6.966
  307DOPC   GL2 3676  17.335   7.426   6.984
  307DOPC   C1A 3677  17.212   7.898   6.584
  307DOPC   D2A 3678  17.191   7.994   6.091
  307DOPC   C3A 3679  17.157   7.714   5.716
  307DOPC   C4A 3680  17.255   7.412   5.327
  307DOPC   C1B 3681  17.279   7.185   6.587
  307DOPC   D2B 3682  17.194   6.966   6.134
  307DOPC   C3B 3683  17.305   6.995   5.665
  307DOPC   C4B 3684  17.452   6.959   5.187
  308DOPC   NC3 3685   3.060   0.061   7.341
  308DOPC   PO4 3686   3.120   0.261   7.003
  308DOPC   GL1 3687   3.312   0.155   6.689
  308DOPC   GL2 3688   3.506   9.934   6.771
  308DOPC   C1A 3689   3.236   0.177   6.270
  308DOPC   D2A 3690   3.203   0.068   5.785
  308DOPC   C3A 3691   3.219   9.987   5.315
  308DOPC   C4A 3692   2.857   9.958   4.978
  308DOPC   C1B 3693   3.713   9.745   6.401
  308DOPC   D2B 3694   3.807   9.570   5.922
  308DOPC   C3B 3695   3.688   9.627   5.466
  308DOPC   C4B 3696   3.518   9.618   4.997
  309DOPC   NC3 3697  14.914   4.100   7.685
  309DOPC   PO4 3698  14.559   3.912   7.610
  309DOPC   GL1 3699  14.625   3.813   7.200
  309DOPC   GL2 3700  14.867   4.031   7.209
  309DOPC   C1A 3701  14.516   3.953   6.792
  309DOPC   D2A 3702  14.590   4.175   6.339
  309DOPC   C3A 3703  14.645   4.222   5.868
  309DOPC   C4A 3704  14.646   4.212   5.373
  309DOPC   C1B 3705  14.952   4.259   6.823
  309DOPC   D2B 3706  15.073   4.351   6.338
  309DOPC   C3B 3707  15.173   4.330   5.875
  309DOPC   C4B 3708  15.215   4.281   5.380
  310DOPC   NC3 3709   5.313   2.287   7.150
  310DOPC   PO4 3710   5.558   2.581   7.081
  310DOPC   GL1 3711   5.459   2.501   6.717
  310DOPC   GL2 3712   5.155   2.518   6.716
  310DOPC   C1A 3713   5.560   2.569   6.317
  310DOPC   D2A 3714   5.389   2.761   5.894
  310DOPC   C3A 3715   5.430   2.689   5.440
  310DOPC   C4A 3716   5.596   2.356   5.123
  310DOPC   C1B 3717   5.053   2.632   6.281
  310DOPC   D2B 3718   4.875   2.727   5.821
  310DOPC   C3B 3719   4.851   2.733   5.362
  310DOPC   C4B 3720   4.797   2.757   4.877
  311DOPC   NC3 3721  19.232   5.072   7.151
  311DOPC   PO4 3722  19.565   4.850   7.136
  311DOPC   GL1 3723  19.626   4.890   6.716
  311DOPC   GL2 3724  19.335   4.993   6.696
  311DOPC   C1A 3725  19.709   5.068   6.326
  311DOPC   D2A 3726  19.549   5.316   5.936
  311DOPC   C3A 3727  19.390   5.230   5.502
  311DOPC   C4A 3728  19.132   5.134   5.088
  311DOPC   C1B 3729  19.211   5.170   6.308
  311DOPC   D2B 3730  19.017   5.253   5.855
  311DOPC   C3B 3731  18.906   5.440   5.438
  311DOPC   C4B 3732  18.786   5.543   4.968
  312DOPC   NC3 3733  13.812   6.124   7.095
  312DOPC   PO4 3734  14.081   6.423   7.128
  312DOPC   GL1 3735  14.289   6.549   6.798
  312DOPC   GL2 3736  14.279   6.852   6.856
  312DOPC   C1A 3737  14.263   6.493   6.364
  312DOPC   D2A 3738  14.248   6.452   5.849
  312DOPC   C3A 3739  14.420   6.429   5.394
  312DOPC   C4A 3740  14.479   6.401   4.896
  312DOPC   C1B 3741  14.334   7.087   6.461
  312DOPC   D2B 3742  14.402   7.217   5.953
  312DOPC   C3B 3743  14.262   6.927   5.592
  312DOPC   C4B 3744  13.973   6.604   5.330
  313DOPC   NC3 3745   5.615   5.605   7.141
  313DOPC   PO4 3746   5.627   5.209   7.101
  313DOPC   GL1 3747   5.454   5.208   6.736
  313DOPC   GL2 3748   5.257   5.441   6.834
  313DOPC   C1A 3749   5.511   5.125   6.301
  313DOPC   D2A 3750   5.541   5.044   5.812
  313DOPC   C3A 3751   5.244   5.111   5.480
  313DOPC   C4A 3752   5.010   5.105   5.048
  313DOPC   C1B 3753   5.207   5.533   6.410
  313DOPC   D2B 3754   5.162   5.380   5.934
  313DOPC   C3B 3755   4.901   5.490   5.542
  313DOPC   C4B 3756   4.567   5.633   5.198
  314DOPC   NC3 3757   9.624   7.659   7.269
  314DOPC   PO4 3758   9.936   7.762   7.505
  314DOPC   GL1 3759   9.998   8.028   7.145
  314DOPC   GL2 3760   9.716   8.113   7.153
  314DOPC   C1A 3761  10.086   8.092   6.703
  314DOPC   D2A 3762  10.083   8.196   6.216
  314DOPC   C3A 3763   9.964   8.025   5.807
  314DOPC   C4A 3764   9.748   8.010   5.368
  314DOPC   C1B 3765   9.604   8.265   6.743
  314DOPC   D2B 3766   9.564   8.217   6.236
  314DOPC   C3B 3767   9.533   8.299   5.759
  314DOPC   C4B 3768   9.588   8.488   5.294
  315DOPC   NC3 3769  11.392   6.484   7.761
  315DOPC   PO4 3770  11.452   6.791   7.505
  315DOPC   GL1 3771  11.274   6.951   7.156
  315DOPC   GL2 3772  10.995   7.041   7.225
  315DOPC   C1A 3773  11.347   6.964   6.712
  315DOPC   D2A 3774  11.405   7.163   6.248
  315DOPC   C3A 3775  11.425   6.985   5.811
  315DOPC   C4A 3776  11.425   6.761   5.365
  315DOPC   C1B 3777  10.871   7.167   6.787
  315DOPC   D2B 3778  10.907   7.235   6.274
  315DOPC   C3B 3779  10.857   6.999   5.863
  315DOPC   C4B 3780  10.804   6.699   5.464
  316DOPC   NC3 3781  18.577   2.450   7.307
  316DOPC   PO4 3782  18.368   2.123   7.399
  316DOPC   GL1 3783  18.338   1.962   6.978
  316DOPC   GL2 3784  18.663   1.955   7.044
  316DOPC   C1A 3785  18.355   2.105   6.550
  316DOPC   D2A 3786  18.431   2.368   6.126
  316DOPC   C3A 3787  18.509   2.465   5.677
  316DOPC   C4A 3788  18.661   2.584   5.227
  316DOPC   C1B 3789  18.841   2.149   6.691
  316DOPC   D2B 3790  18.958   2.318   6.225
  316DOPC   C3B 3791  19.027   2.587   5.839
  316DOPC   C4B 3792  19.061   2.911   5.464
  317DOPC   NC3 3793  11.784   0.086   7.644
  317DOPC   PO4 3794  12.072   0.308   7.473
  317DOPC   GL1 3795  12.184   0.133   7.054
  317DOPC   GL2 3796  12.054   0.404   6.983
  317DOPC   C1A 3797  12.134   0.005   6.608
  317DOPC   D2A 3798  12.042   9.983   6.095
  317DOPC   C3A 3799  12.119   0.082   5.636
  317DOPC   C4A 3800  12.138   0.052   5.138
  317DOPC   C1B 3801  12.113   0.569   6.560
  317DOPC   D2B 3802  12.276   0.772   6.118
  317DOPC   C3B 3803  12.105   0.630   5.694
  317DOPC   C4B 3804  11.862   0.444   5.301
  318DOPC   NC3 3805  10.360   6.688   7.620
  318DOPC   PO4 3806  10.487   6.375   7.408
  318DOPC   GL1 3807  10.326   6.450   7.013
  318DOPC   GL2 3808  10.200   6.711   7.155
  318DOPC   C1A 3809  10.429   6.594   6.584
  318DOPC   D2A 3810  10.461   6.659   6.081
  318DOPC   C3A 3811  10.351   6.460   5.665
  318DOPC   C4A 3812  10.338   6.384   5.174
  318DOPC   C1B 3813  10.322   7.031   6.866
  318DOPC   D2B 3814  10.426   7.196   6.406
  318DOPC   C3B 3815  10.374   7.152   5.947
  318DOPC   C4B 3816  10.368   6.984   5.484
  319DOPC   NC3 3817  19.502   0.753   7.358
  319DOPC   PO4 3818  19.889   0.781   7.237
  319DOPC   GL1 3819  19.837   0.747   6.790
  319DOPC   GL2 3820  19.536   0.707   6.871
  319DOPC   C1A 3821  19.832   0.777   6.329
  319DOPC   D2A 3822  19.628   0.740   5.857
  319DOPC   C3A 3823  19.710   0.384   5.554
  319DOPC   C4A 3824   0.027   9.996   5.521
  319DOPC   C1B 3825  19.403   0.547   6.476
  319DOPC   D2B 3826  19.345   0.337   6.018
  319DOPC   C3B 3827  19.201   0.265   5.576
  319DOPC   C4B 3828  19.297   0.283   5.092
  320DOPC   NC3 3829  15.888   0.566   7.498
  320DOPC   PO4 3830  15.631   0.442   7.225
  320DOPC   GL1 3831  15.897   0.567   6.950
  320DOPC   GL2 3832  16.175   0.564   7.063
  320DOPC   C1A 3833  15.918   0.507   6.518
  320DOPC   D2A 3834  15.904   0.422   6.023
  320DOPC   C3A 3835  15.724   0.596   5.617
  320DOPC   C4A 3836  15.485   0.633   5.179
  320DOPC   C1B 3837  16.411   0.469   6.664
  320DOPC   D2B 3838  16.496   0.268   6.182
  320DOPC   C3B 3839  16.335   0.369   5.754
  320DOPC   C4B 3840  16.127   0.533   5.328
  321DOPC   NC3 3841  17.318   9.704   7.143
  321DOPC   PO4 3842  17.357   9.366   7.361
  321DOPC   GL1 3843  17.625   9.264   7.050
  321DOPC   GL2 3844  17.760   9.533   7.053
  321DOPC   C1A 3845  17.473   9.340   6.645
  321DOPC   D2A 3846  17.412   9.495   6.179
  321DOPC   C3A 3847  17.388   9.395   5.730
  321DOPC   C4A 3848  17.564   9.304   5.291
  321DOPC   C1B 3849  17.657   9.809   6.723
  321DOPC   D2B 3850  17.424   9.984   6.325
  321DOPC   C3B 3851  17.374   9.927   5.858
  321DOPC   C4B 3852  17.367   9.776   5.386
  322DOPC   NC3 3853   6.659   4.677   7.340
  322DOPC   PO4 3854   6.393   4.878   7.136
  322DOPC   GL1 3855   6.531   4.720   6.760
  322DOPC   GL2 3856   6.621   4.450   6.923
  322DOPC   C1A 3857   6.499   4.763   6.314
  322DOPC   D2A 3858   6.467   4.772   5.814
  322DOPC   C3A 3859   6.604   4.525   5.443
  322DOPC   C4A 3860   6.400   4.138   5.229
  322DOPC   C1B 3861   6.730   4.093   6.668
  322DOPC   D2B 3862   6.790   3.971   6.183
  322DOPC   C3B 3863   6.778   4.063   5.715
  322DOPC   C4B 3864   6.921   4.092   5.235
  323DOPC   NC3 3865  16.723   6.580   7.553
  323DOPC   PO4 3866  16.348   6.512   7.413
  323DOPC   GL1 3867  16.450   6.197   7.101
  323DOPC   GL2 3868  16.718   6.352   7.099
  323DOPC   C1A 3869  16.456   6.171   6.668
  323DOPC   D2A 3870  16.422   6.088   6.180
  323DOPC   C3A 3871  16.647   6.144   5.784
  323DOPC   C4A 3872  16.888   6.179   5.353
  323DOPC   C1B 3873  16.672   6.666   6.786
  323DOPC   D2B 3874  16.781   7.028   6.455
  323DOPC   C3B 3875  16.680   6.990   6.003
  323DOPC   C4B 3876  16.654   6.825   5.533
  324DOPC   NC3 3877   7.253   8.419   7.221
  324DOPC   PO4 3878   7.186   8.063   7.063
  324DOPC   GL1 3879   7.548   8.216   6.895
  324DOPC   GL2 3880   7.659   7.955   6.942
  324DOPC   C1A 3881   7.352   8.280   6.481
  324DOPC   D2A 3882   7.307   8.362   5.982
  324DOPC   C3A 3883   7.180   8.459   5.535
  324DOPC   C4A 3884   6.787   8.422   5.230
  324DOPC   C1B 3885   7.633   7.860   6.505
  324DOPC   D2B 3886   7.641   7.959   6.004
  324DOPC   C3B 3887   7.719   7.850   5.549
  324DOPC   C4B 3888   7.613   7.820   5.062
  325DOPC   NC3 3889   7.552   1.239   7.385
  325DOPC   PO4 3890   7.152   1.231   7.359
  325DOPC   GL1 3891   7.064   1.240   6.902
  325DOPC   GL2 3892   7.361   1.354   6.912
  325DOPC   C1A 3893   6.907   1.119   6.479
  325DOPC   D2A 3894   6.719   0.923   6.037
  325DOPC   C3A 3895   6.963   1.068   5.653
  325DOPC   C4A 3896   7.320   1.261   5.347
  325DOPC   C1B 3897   7.607   1.443   6.533
  325DOPC   D2B 3898   7.795   1.573   6.072
  325DOPC   C3B 3899   7.737   1.450   5.599
  325DOPC   C4B 3900   7.653   1.544   5.093
  326DOPC   NC3 3901  16.619   0.795   7.099
  326DOPC   PO4 3902  16.851   0.500   7.226
  326DOPC   GL1 3903  16.853   0.421   6.855
  326DOPC   GL2 3904  16.850   0.683   6.707
  326DOPC   C1A 3905  16.807   0.132   6.559
  326DOPC   D2A 3906  16.935   9.936   6.131
  326DOPC   C3A 3907  16.808   0.141   5.748
  326DOPC   C4A 3908  16.626   0.317   5.338
  326DOPC   C1B 3909  16.745   0.679   6.276
  326DOPC   D2B 3910  16.730   0.673   5.766
  326DOPC   C3B 3911  16.574   0.825   5.340
  326DOPC   C4B 3912  16.504   0.975   4.862
  327DOPC   NC3 3913  10.202   1.651   7.339
  327DOPC   PO4 3914  10.471   1.950   7.367
  327DOPC   GL1 3915  10.660   1.992   7.046
  327DOPC   GL2 3916  10.924   1.893   7.005
  327DOPC   C1A 3917  10.380   2.012   6.696
  327DOPC   D2A 3918  10.140   2.144   6.273
  327DOPC   C3A 3919  10.218   2.012   5.822
  327DOPC   C4A 3920  10.353   1.891   5.352
  327DOPC   C1B 3921  10.851   1.849   6.597
  327DOPC   D2B 3922  10.607   1.925   6.180
  327DOPC   C3B 3923  10.701   1.876   5.728
  327DOPC   C4B 3924  10.904   1.758   5.305
  328DOPC   NC3 3925   1.036   7.320   7.499
  328DOPC   PO4 3926   1.107   7.558   7.186
  328DOPC   GL1 3927   0.941   7.426   6.833
  328DOPC   GL2 3928   1.051   7.137   6.866
  328DOPC   C1A 3929   0.890   7.419   6.398
  328DOPC   D2A 3930   0.940   7.134   5.974
  328DOPC   C3A 3931   0.821   7.188   5.508
  328DOPC   C4A 3932   0.727   7.103   5.025
  328DOPC   C1B 3933   1.240   7.087   6.457
  328DOPC   D2B 3934   1.452   6.996   6.006
  328DOPC   C3B 3935   1.362   7.178   5.579
  328DOPC   C4B 3936   1.200   7.284   5.117
  329DOPC   NC3 3937   9.321   2.970   7.683
  329DOPC   PO4 3938   9.511   3.251   7.456
  329DOPC   GL1 3939   9.449   3.316   7.006
  329DOPC   GL2 3940   9.348   3.043   6.976
  329DOPC   C1A 3941   9.382   3.455   6.567
  329DOPC   D2A 3942   9.321   3.404   6.059
  329DOPC   C3A 3943   9.138   3.366   5.624
  329DOPC   C4A 3944   8.724   3.445   5.317
  329DOPC   C1B 3945   9.086   3.027   6.617
  329DOPC   D2B 3946   8.835   3.242   6.233
  329DOPC   C3B 3947   8.706   3.190   5.782
  329DOPC   C4B 3948   8.723   2.944   5.343
  330DOPC   NC3 3949   6.878   3.768   7.151
  330DOPC   PO4 3950   7.256   3.700   7.270
  330DOPC   GL1 3951   7.376   3.654   6.811
  330DOPC   GL2 3952   7.134   3.529   6.855
  330DOPC   C1A 3953   7.400   3.586   6.360
  330DOPC   D2A 3954   7.474   3.567   5.873
  330DOPC   C3A 3955   7.585   3.320   5.498
  330DOPC   C4A 3956   7.678   3.022   5.126
  330DOPC   C1B 3957   6.926   3.608   6.513
  330DOPC   D2B 3958   6.954   3.512   6.018
  330DOPC   C3B 3959   7.050   3.614   5.563
  330DOPC   C4B 3960   7.289   3.671   5.122
  331DOPC   NC3 3961  18.421   1.647   7.303
  331DOPC   PO4 3962  18.727   1.434   7.448
  331DOPC   GL1 3963  18.955   1.336   7.061
  331DOPC   GL2 3964  18.735   1.520   6.978
  331DOPC   C1A 3965  19.081   1.353   6.637
  331DOPC   D2A 3966  19.189   1.428   6.156
  331DOPC   C3A 3967  19.050   1.639   5.767
  331DOPC   C4A 3968  18.994   1.843   5.310
  331DOPC   C1B 3969  18.668   1.657   6.569
  331DOPC   D2B 3970  18.684   1.901   6.133
  331DOPC   C3B 3971  18.857   2.107   5.742
  331DOPC   C4B 3972  19.103   2.345   5.373
  332DOPC   NC3 3973   7.850   5.717   7.628
  332DOPC   PO4 3974   8.078   6.021   7.512
  332DOPC   GL1 3975   8.215   6.047   7.115
  332DOPC   GL2 3976   7.934   5.994   6.999
  332DOPC   C1A 3977   8.460   5.947   6.770
  332DOPC   D2A 3978   8.529   6.150   6.323
  332DOPC   C3A 3979   8.316   6.357   5.953
  332DOPC   C4A 3980   8.100   6.297   5.510
  332DOPC   C1B 3981   7.918   5.982   6.545
  332DOPC   D2B 3982   7.993   5.974   6.033
  332DOPC   C3B 3983   8.047   5.799   5.588
  332DOPC   C4B 3984   8.023   5.584   5.129
  333DOPC   NC3 3985  19.528   1.533   7.405
  333DOPC   PO4 3986  19.591   1.211   7.176
  333DOPC   GL1 3987  19.323   1.099   6.954
  333DOPC   GL2 3988  19.147   0.901   7.038
  333DOPC   C1A 3989  19.492   1.065   6.552
  333DOPC   D2A 3990  19.652   1.195   6.097
  333DOPC   C3A 3991  19.807   1.192   5.647
  333DOPC   C4A 3992   0.088   1.302   5.257
  333DOPC   C1B 3993  19.028   0.856   6.621
  333DOPC   D2B 3994  19.220   0.921   6.151
  333DOPC   C3B 3995  19.292   1.145   5.738
  333DOPC   C4B 3996  19.323   1.457   5.368
  334DOPC   NC3 3997   0.513   3.642   7.432
  334DOPC   PO4 3998   0.304   3.467   7.154
  334DOPC   GL1 3999   0.585   3.724   6.957
  334DOPC   GL2 4000   0.805   3.506   7.072
  334DOPC   C1A 4001   0.503   3.681   6.516
  334DOPC   D2A 4002   0.468   3.557   6.029
  334DOPC   C3A 4003   0.268   3.642   5.613
  334DOPC   C4A 4004   0.115   3.704   5.129
  334DOPC   C1B 4005   0.887   3.339   6.640
  334DOPC   D2B 4006   0.843   3.243   6.115
  334DOPC   C3B 4007   0.806   3.419   5.651
  334DOPC   C4B 4008   0.612   3.722   5.278
  335PF10C   C1 4009   3.745   7.396   7.011
  335PF10C   F2 4010   3.889   7.445   6.832
  335PF10C   F3 4011   3.731   7.465   6.679
  335PF10C   F4 4012   3.856   7.556   6.509
  335PF10C   F5 4013   3.770   7.436   6.346
  335PF10C   F6 4014   3.780   7.603   6.188
  335PF10C   F7 4015   3.599   7.547   6.077
  335PF10C   F8 4016   3.693   7.576   5.869
  335PF10C   F9 4017   3.519   7.674   5.777
  335PF10C  F10 4018   3.608   7.686   5.565
  336PF10C   C1 4019   9.532   1.653   7.708
  336PF10C   F2 4020   9.637   1.820   7.580
  336PF10C   F3 4021   9.629   1.714   7.388
  336PF10C   F4 4022   9.691   1.884   7.246
  336PF10C   F5 4023   9.543   1.837   7.090
  336PF10C   F6 4024   9.676   1.889   6.910
  336PF10C   F7 4025   9.601   1.730   6.778
  336PF10C   F8 4026   9.588   1.864   6.592
  336PF10C   F9 4027   9.662   1.716   6.448
  336PF10C  F10 4028   9.617   1.840   6.260
  337PF10C   C1 4029  16.522   4.827   7.057
  337PF10C   F2 4030  16.489   4.819   6.824
  337PF10C   F3 4031  16.499   4.600   6.807
  337PF10C   F4 4032  16.537   4.580   6.581
  337PF10C   F5 4033  16.406   4.407   6.545
  337PF10C   F6 4034  16.545   4.305   6.393
  337PF10C   F7 4035  16.386   4.249   6.251
  337PF10C   F8 4036  16.503   4.299   6.059
  337PF10C   F9 4037  16.427   4.127   5.944
  337PF10C  F10 4038  16.487   4.204   5.736
  338DOPC   NC3 4039  11.492   3.276   2.415
  338DOPC   PO4 4040  11.203   3.227   2.688
  338DOPC   GL1 4041  11.211   3.462   3.067
  338DOPC   GL2 4042  10.910   3.494   3.052
  338DOPC   C1A 4043  11.231   3.337   3.497
  338DOPC   D2A 4044  11.238   3.260   3.999
  338DOPC   C3A 4045  11.370   3.414   4.427
  338DOPC   C4A 4046  11.386   3.803   4.734
  338DOPC   C1B 4047  10.713   3.333   3.420
  338DOPC   D2B 4048  10.654   3.215   3.911
  338DOPC   C3B 4049  10.842   3.294   4.342
  338DOPC   C4B 4050  11.014   3.334   4.805
  339DOPC   NC3 4051   7.797   6.493   2.653
  339DOPC   PO4 4052   7.528   6.780   2.734
  339DOPC   GL1 4053   7.605   6.631   3.123
  339DOPC   GL2 4054   7.896   6.724   3.047
  339DOPC   C1A 4055   7.653   6.641   3.564
  339DOPC   D2A 4056   7.772   6.752   4.033
  339DOPC   C3A 4057   7.659   6.598   4.454
  339DOPC   C4A 4058   7.608   6.449   4.913
  339DOPC   C1B 4059   8.107   6.773   3.419
  339DOPC   D2B 4060   8.262   6.849   3.881
  339DOPC   C3B 4061   8.187   6.576   4.258
  339DOPC   C4B 4062   8.110   6.304   4.679
  340DOPC   NC3 4063  12.068   2.271   2.770
  340DOPC   PO4 4064  12.303   2.605   2.718
  340DOPC   GL1 4065  12.445   2.807   3.074
  340DOPC   GL2 4066  12.732   2.720   2.984
  340DOPC   C1A 4067  12.331   2.684   3.509
  340DOPC   D2A 4068  12.184   2.641   4.001
  340DOPC   C3A 4069  12.145   2.729   4.471
  340DOPC   C4A 4070  12.161   2.763   4.973
  340DOPC   C1B 4071  12.930   2.829   3.360
  340DOPC   D2B 4072  13.043   2.919   3.836
  340DOPC   C3B 4073  12.788   2.884   4.231
  340DOPC   C4B 4074  12.582   2.928   4.682
  341DOPC   NC3 4075   9.616   4.814   2.666
  341DOPC   PO4 4076   9.918   4.756   2.936
  341DOPC   GL1 4077   9.912   4.831   3.414
  341DOPC   GL2 4078   9.919   5.121   3.302
  341DOPC   C1A 4079   9.821   4.881   3.878
  341DOPC   D2A 4080   9.851   5.128   4.344
  341DOPC   C3A 4081   9.961   5.452   4.713
  341DOPC   C4A 4082  10.166   5.863   4.956
  341DOPC   C1B 4083   9.960   5.377   3.678
  341DOPC   D2B 4084  10.044   5.701   4.067
  341DOPC   C3B 4085  10.292   5.768   4.467
  341DOPC   C4B 4086  10.559   5.560   4.843
  342DOPC   NC3 4087  13.342   0.474   2.916
  342DOPC   PO4 4088  13.728   0.379   2.893
  342DOPC   GL1 4089  13.610   0.420   3.296
  342DOPC   GL2 4090  13.522   0.698   3.271
  342DOPC   C1A 4091  13.196   0.324   3.453
  342DOPC   D2A 4092  12.941   0.271   3.889
  342DOPC   C3A 4093  13.081   0.274   4.342
  342DOPC   C4A 4094  13.261   0.306   4.810
  342DOPC   C1B 4095  13.408   0.693   3.687
  342DOPC   D2B 4096  13.261   0.708   4.153
  342DOPC   C3B 4097  13.303   0.768   4.613
  342DOPC   C4B 4098  13.221   0.774   5.118
  343DOPC   NC3 4099  17.543   8.073   2.630
  343DOPC   PO4 4100  17.223   7.913   2.805
  343DOPC   GL1 4101  17.268   7.763   3.215
  343DOPC   GL2 4102  17.582   7.781   3.184
  343DOPC   C1A 4103  17.242   7.867   3.658
  343DOPC   D2A 4104  17.206   7.949   4.162
  343DOPC   C3A 4105  17.130   7.905   4.644
  343DOPC   C4A 4106  17.044   7.847   5.145
  343DOPC   C1B 4107  17.744   7.790   3.608
  343DOPC   D2B 4108  17.747   7.761   4.105
  343DOPC   C3B 4109  17.600   8.053   4.458
  343DOPC   C4B 4110  17.270   8.399   4.638
  344DOPC   NC3 4111  19.792   5.018   2.559
  344DOPC   PO4 4112  19.465   5.121   2.769
  344DOPC   GL1 4113  19.535   5.151   3.185
  344DOPC   GL2 4114  19.629   4.854   3.182
  344DOPC   C1A 4115  19.769   5.302   3.532
  344DOPC   D2A 4116   0.072   5.265   3.934
  344DOPC   C3A 4117   0.199   5.230   4.396
  344DOPC   C4A 4118   0.210   5.312   4.905
  344DOPC   C1B 4119  19.829   4.776   3.578
  344DOPC   D2B 4120  19.991   4.759   4.060
  344DOPC   C3B 4121  19.707   5.030   4.323
  344DOPC   C4B 4122  19.538   5.014   4.795
  345DOPC   NC3 4123  19.181   4.222   2.663
  345DOPC   PO4 4124  19.256   3.967   2.966
  345DOPC   GL1 4125  19.145   4.158   3.279
  345DOPC   GL2 4126  19.049   4.408   3.107
  345DOPC   C1A 4127  19.124   4.215   3.710
  345DOPC   D2A 4128  19.063   4.383   4.178
  345DOPC   C3A 4129  19.149   4.344   4.638
  345DOPC   C4A 4130  19.221   4.359   5.135
  345DOPC   C1B 4131  18.919   4.623   3.472
  345DOPC   D2B 4132  18.816   4.782   3.942
  345DOPC   C3B 4133  18.672   4.669   4.378
  345DOPC   C4B 4134  18.428   4.570   4.792
  346DOPC   NC3 4135   6.721   2.758   2.786
  346DOPC   PO4 4136   6.419   3.022   2.805
  346DOPC   GL1 4137   6.286   2.841   3.188
  346DOPC   GL2 4138   6.461   2.593   3.138
  346DOPC   C1A 4139   6.119   2.891   3.603
  346DOPC   D2A 4140   6.070   2.938   4.105
  346DOPC   C3A 4141   6.229   3.067   4.538
  346DOPC   C4A 4142   6.583   3.137   4.888
  346DOPC   C1B 4143   6.532   2.381   3.525
  346DOPC   D2B 4144   6.366   2.124   3.933
  346DOPC   C3B 4145   6.440   2.190   4.400
  346DOPC   C4B 4146   6.587   2.222   4.875
  347DOPC   NC3 4147   0.382   7.074   2.503
  347DOPC   PO4 4148   0.275   7.436   2.632
  347DOPC   GL1 4149   0.223   7.216   3.021
  347DOPC   GL2 4150   0.164   7.511   3.106
  347DOPC   C1A 4151   0.285   7.010   3.437
  347DOPC   D2A 4152   0.349   6.945   3.948
  347DOPC   C3A 4153   0.347   7.096   4.412
  347DOPC   C4A 4154   0.256   7.248   4.882
  347DOPC   C1B 4155   0.159   7.495   3.544
  347DOPC   D2B 4156   0.166   7.453   4.060
  347DOPC   C3B 4157   0.328   7.606   4.491
  347DOPC   C4B 4158   0.601   7.623   4.917
  348DOPC   NC3 4159  15.873   8.885   2.348
  348DOPC   PO4 4160  15.763   9.263   2.472
  348DOPC   GL1 4161  15.823   9.491   2.835
  348DOPC   GL2 4162  15.891   9.223   2.983
  348DOPC   C1A 4163  15.623   9.609   3.194
  348DOPC   D2A 4164  15.550   9.646   3.691
  348DOPC   C3A 4165  15.615   9.475   4.126
  348DOPC   C4A 4166  15.678   9.354   4.605
  348DOPC   C1B 4167  15.729   9.168   3.415
  348DOPC   D2B 4168  15.438   9.085   3.827
  348DOPC   C3B 4169  15.196   8.757   4.097
  348DOPC   C4B 4170  15.247   8.548   4.552
  349DOPC   NC3 4171   0.067   4.305   2.801
  349DOPC   PO4 4172  19.949   4.675   2.892
  349DOPC   GL1 4173   0.215   4.648   3.241
  349DOPC   GL2 4174   0.339   4.372   3.176
  349DOPC   C1A 4175   0.275   4.553   3.672
  349DOPC   D2A 4176   0.348   4.274   4.082
  349DOPC   C3A 4177   0.252   4.401   4.515
  349DOPC   C4A 4178   0.009   4.803   4.642
  349DOPC   C1B 4179   0.436   4.090   3.550
  349DOPC   D2B 4180   0.603   3.843   3.988
  349DOPC   C3B 4181   0.687   4.061   4.423
  349DOPC   C4B 4182   0.701   4.439   4.766
  350DOPC   NC3 4183   6.562   4.939   2.774
  350DOPC   PO4 4184   6.193   4.898   2.914
  350DOPC   GL1 4185   6.383   5.039   3.268
  350DOPC   GL2 4186   6.571   5.227   3.137
  350DOPC   C1A 4187   6.606   5.027   3.666
  350DOPC   D2A 4188   6.852   5.040   4.114
  350DOPC   C3A 4189   6.720   4.869   4.547
  350DOPC   C4A 4190   6.489   4.575   4.905
  350DOPC   C1B 4191   6.828   5.428   3.443
  350DOPC   D2B 4192   6.873   5.592   3.931
  350DOPC   C3B 4193   6.837   5.476   4.395
  350DOPC   C4B 4194   6.730   5.301   4.857
  351DOPC   NC3 4195  18.965   5.081   2.605
  351DOPC   PO4 4196  19.119   4.722   2.712
  351DOPC   GL1 4197  19.187   4.863   3.123
  351DOPC   GL2 4198  19.081   5.148   3.050
  351DOPC   C1A 4199  19.312   4.952   3.548
  351DOPC   D2A 4200  19.275   5.027   4.047
  351DOPC   C3A 4201  19.151   4.844   4.466
  351DOPC   C4A 4202  18.915   4.718   4.889
  351DOPC   C1B 4203  18.829   5.394   3.339
  351DOPC   D2B 4204  18.592   5.562   3.754
  351DOPC   C3B 4205  18.643   5.357   4.184
  351DOPC   C4B 4206  18.709   5.124   4.630
  352DOPC   NC3 4207  17.077   9.234   2.502
  352DOPC   PO4 4208  16.747   9.079   2.672
  352DOPC   GL1 4209  16.724   9.344   3.039
  352DOPC   GL2 4210  17.005   9.436   2.923
  352DOPC   C1A 4211  16.839   9.207   3.458
  352DOPC   D2A 4212  17.039   9.104   3.925
  352DOPC   C3A 4213  17.158   9.154   4.388
  352DOPC   C4A 4214  17.297   9.161   4.867
  352DOPC   C1B 4215  17.290   9.232   3.209
  352DOPC   D2B 4216  17.520   9.080   3.653
  352DOPC   C3B 4217  17.517   8.922   4.109
  352DOPC   C4B 4218  17.558   8.817   4.594
  353DOPC   NC3 4219   1.128   5.770   2.633
  353DOPC   PO4 4220   1.138   5.427   2.839
  353DOPC   GL1 4221   1.444   5.460   3.076
  353DOPC   GL2 4222   1.570   5.723   2.947
  353DOPC   C1A 4223   1.209   5.484   3.476
  353DOPC   D2A 4224   1.171   5.405   3.964
  353DOPC   C3A 4225   1.207   5.598   4.390
  353DOPC   C4A 4226   1.395   5.817   4.793
  353DOPC   C1B 4227   1.601   5.804   3.375
  353DOPC   D2B 4228   1.386   5.873   3.829
  353DOPC   C3B 4229   1.461   6.039   4.273
  353DOPC   C4B 4230   1.504   6.308   4.688
  354DOPC   NC3 4231  12.626   3.043   2.660
  354DOPC   PO4 4232  13.026   2.985   2.706
  354DOPC   GL1 4233  13.056   3.244   3.065
  354DOPC   GL2 4234  12.748   3.158   3.093
  354DOPC   C1A 4235  12.989   3.328   3.495
  354DOPC   D2A 4236  12.768   3.336   3.946
  354DOPC   C3A 4237  12.794   3.353   4.410
  354DOPC   C4A 4238  12.789   3.352   4.901
  354DOPC   C1B 4239  12.500   3.159   3.461
  354DOPC   D2B 4240  12.274   3.184   3.915
  354DOPC   C3B 4241  12.273   3.218   4.392
  354DOPC   C4B 4242  12.239   3.270   4.889
  355DOPC   NC3 4243  19.175   0.902   2.972
  355DOPC   PO4 4244  19.549   1.053   2.928
  355DOPC   GL1 4245  19.690   1.016   3.344
  355DOPC   GL2 4246  19.446   0.814   3.387
  355DOPC   C1A 4247  19.819   0.851   3.734
  355DOPC   D2A 4248  19.773   0.596   4.156
  355DOPC   C3A 4249  19.759   0.653   4.615
  355DOPC   C4A 4250  19.838   0.688   5.114
  355DOPC   C1B 4251  19.446   0.507   3.742
  355DOPC   D2B 4252  19.376   0.266   4.193
  355DOPC   C3B 4253  19.559   0.183   4.627
  355DOPC   C4B 4254  19.806   0.167   5.055
  356DOPC   NC3 4255  13.787   1.237   2.697
  356DOPC   PO4 4256  13.623   0.901   2.843
  356DOPC   GL1 4257  13.731   1.070   3.253
  356DOPC   GL2 4258  13.661   1.338   3.137
  356DOPC   C1A 4259  13.693   1.093   3.717
  356DOPC   D2A 4260  13.661   1.049   4.227
  356DOPC   C3A 4261  13.776   1.307   4.612
  356DOPC   C4A 4262  14.032   1.699   4.808
  356DOPC   C1B 4263  13.506   1.515   3.508
  356DOPC   D2B 4264  13.381   1.429   3.990
  356DOPC   C3B 4265  13.218   1.249   4.400
  356DOPC   C4B 4266  12.957   1.098   4.785
  357DOPC   NC3 4267  16.811   7.832   2.517
  357DOPC   PO4 4268  16.470   7.760   2.709
  357DOPC   GL1 4269  16.587   7.539   3.077
  357DOPC   GL2 4270  16.841   7.718   3.032
  357DOPC   C1A 4271  16.471   7.645   3.508
  357DOPC   D2A 4272  16.338   7.739   3.991
  357DOPC   C3A 4273  16.420   7.626   4.441
  357DOPC   C4A 4274  16.520   7.482   4.906
  357DOPC   C1B 4275  16.836   7.985   3.384
  357DOPC   D2B 4276  16.824   8.161   3.860
  357DOPC   C3B 4277  16.723   8.019   4.308
  357DOPC   C4B 4278  16.643   7.966   4.805
  358DOPC   NC3 4279  18.217   2.519   2.760
  358DOPC   PO4 4280  17.939   2.238   2.820
  358DOPC   GL1 4281  18.050   2.052   3.203
  358DOPC   GL2 4282  18.303   2.228   3.177
  358DOPC   C1A 4283  17.989   2.278   3.587
  358DOPC   D2A 4284  18.149   2.604   3.952
  358DOPC   C3A 4285  18.106   2.701   4.422
  358DOPC   C4A 4286  18.136   2.770   4.914
  358DOPC   C1B 4287  18.371   2.586   3.432
  358DOPC   D2B 4288  18.625   2.830   3.789
  358DOPC   C3B 4289  18.596   2.750   4.253
  358DOPC   C4B 4290  18.602   2.655   4.732
  359DOPC   NC3 4291   3.945   1.317   2.515
  359DOPC   PO4 4292   3.608   1.283   2.719
  359DOPC   GL1 4293   3.618   0.980   3.034
  359DOPC   GL2 4294   3.326   0.980   3.100
  359DOPC   C1A 4295   3.891   1.051   3.367
  359DOPC   D2A 4296   4.087   1.154   3.814
  359DOPC   C3A 4297   3.881   1.225   4.233
  359DOPC   C4A 4298   3.559   1.272   4.606
  359DOPC   C1B 4299   3.294   1.121   3.502
  359DOPC   D2B 4300   3.302   1.296   3.966
  359DOPC   C3B 4301   3.104   1.178   4.362
  359DOPC   C4B 4302   3.069   1.032   4.824
  360DOPC   NC3 4303   5.867   1.459   2.698
  360DOPC   PO4 4304   5.761   1.072   2.657
  360DOPC   GL1 4305   5.746   0.963   3.097
  360DOPC   GL2 4306   5.572   1.205   3.116
  360DOPC   C1A 4307   5.878   0.835   3.511
  360DOPC   D2A 4308   5.945   0.712   4.011
  360DOPC   C3A 4309   6.085   0.857   4.455
  360DOPC   C4A 4310   6.317   0.964   4.901
  360DOPC   C1B 4311   5.422   1.131   3.540
  360DOPC   D2B 4312   5.343   0.991   4.020
  360DOPC   C3B 4313   5.536   1.161   4.420
  360DOPC   C4B 4314   5.433   1.452   4.820
  361DOPC   NC3 4315   3.179   1.606   2.597
  361DOPC   PO4 4316   3.105   1.274   2.812
  361DOPC   GL1 4317   3.259   1.440   3.155
  361DOPC   GL2 4318   3.541   1.380   3.178
  361DOPC   C1A 4319   3.233   1.626   3.554
  361DOPC   D2A 4320   3.472   1.771   3.977
  361DOPC   C3A 4321   3.290   1.663   4.402
  361DOPC   C4A 4322   3.165   1.538   4.870
  361DOPC   C1B 4323   3.718   1.462   3.593
  361DOPC   D2B 4324   4.016   1.645   3.959
  361DOPC   C3B 4325   3.820   1.721   4.383
  361DOPC   C4B 4326   3.633   1.765   4.842
  362DOPC   NC3 4327   3.498   9.938   2.581
  362DOPC   PO4 4328   3.837   0.114   2.699
  362DOPC   GL1 4329   3.788   9.837   2.980
  362DOPC   GL2 4330   3.842   9.568   2.890
  362DOPC   C1A 4331   3.691   9.841   3.397
  362DOPC   D2A 4332   3.475   9.941   3.829
  362DOPC   C3A 4333   3.473   9.724   4.232
  362DOPC   C4A 4334   3.630   9.376   4.534
  362DOPC   C1B 4335   3.630   9.363   3.201
  362DOPC   D2B 4336   3.426   9.452   3.633
  362DOPC   C3B 4337   3.478   9.255   4.038
  362DOPC   C4B 4338   3.283   8.994   4.384
  363DOPC   NC3 4339   2.054   5.597   2.644
  363DOPC   PO4 4340   1.998   5.937   2.854
  363DOPC   GL1 4341   2.079   5.933   3.302
  363DOPC   GL2 4342   2.327   5.791   3.189
  363DOPC   C1A 4343   1.960   5.787   3.728
  363DOPC   D2A 4344   1.695   5.601   4.132
  363DOPC   C3A 4345   1.848   5.745   4.555
  363DOPC   C4A 4346   1.943   6.105   4.886
  363DOPC   C1B 4347   2.438   5.543   3.537
  363DOPC   D2B 4348   2.435   5.394   4.008
  363DOPC   C3B 4349   2.371   5.612   4.413
  363DOPC   C4B 4350   2.370   5.811   4.859
  364DOPC   NC3 4351   1.838   2.874   2.335
  364DOPC   PO4 4352   1.663   2.882   2.679
  364DOPC   GL1 4353   1.900   2.820   3.018
  364DOPC   GL2 4354   2.149   2.678   2.950
  364DOPC   C1A 4355   1.753   2.704   3.434
  364DOPC   D2A 4356   1.696   2.612   3.938
  364DOPC   C3A 4357   1.674   2.766   4.402
  364DOPC   C4A 4358   1.697   2.916   4.891
  364DOPC   C1B 4359   2.202   2.474   3.364
  364DOPC   D2B 4360   2.118   2.318   3.839
  364DOPC   C3B 4361   2.091   2.479   4.286
  364DOPC   C4B 4362   2.146   2.709   4.726
  365DOPC   NC3 4363  11.196   6.614   2.760
  365DOPC   PO4 4364  11.157   7.014   2.792
  365DOPC   GL1 4365  11.250   7.048   3.233
  365DOPC   GL2 4366  11.340   6.765   3.192
  365DOPC   C1A 4367  11.185   7.173   3.679
  365DOPC   D2A 4368  11.069   7.207   4.170
  365DOPC   C3A 4369  10.909   7.086   4.608
  365DOPC   C4A 4370  10.688   7.006   5.052
  365DOPC   C1B 4371  11.327   6.702   3.608
  365DOPC   D2B 4372  11.316   6.753   4.096
  365DOPC   C3B 4373  11.264   6.729   4.562
  365DOPC   C4B 4374  11.072   6.646   5.011
  366DOPC   NC3 4375  18.202   1.498   2.410
  366DOPC   PO4 4376  18.040   1.262   2.682
  366DOPC   GL1 4377  18.036   1.325   3.104
  366DOPC   GL2 4378  18.328   1.242   3.125
  366DOPC   C1A 4379  17.751   1.308   3.468
  366DOPC   D2A 4380  17.727   1.212   3.977
  366DOPC   C3A 4381  17.814   1.277   4.464
  366DOPC   C4A 4382  17.910   1.347   4.970
  366DOPC   C1B 4383  18.550   1.413   3.464
  366DOPC   D2B 4384  18.475   1.570   3.916
  366DOPC   C3B 4385  18.625   1.464   4.336
  366DOPC   C4B 4386  18.363   1.381   4.735
  367DOPC   NC3 4387  13.866   6.142   2.475
  367DOPC   PO4 4388  14.036   6.314   2.799
  367DOPC   GL1 4389  14.229   6.240   3.218
  367DOPC   GL2 4390  13.990   6.046   3.276
  367DOPC   C1A 4391  14.317   6.301   3.668
  367DOPC   D2A 4392  14.298   6.248   4.180
  367DOPC   C3A 4393  14.062   6.061   4.541
  367DOPC   C4A 4394  13.686   5.920   4.840
  367DOPC   C1B 4395  14.097   5.849   3.688
  367DOPC   D2B 4396  14.209   5.735   4.169
  367DOPC   C3B 4397  14.512   5.466   4.432
  367DOPC   C4B 4398  14.584   5.108   4.791
  368DOPC   NC3 4399  16.009   6.261   2.558
  368DOPC   PO4 4400  16.333   6.199   2.802
  368DOPC   GL1 4401  16.334   6.210   3.236
  368DOPC   GL2 4402  16.344   5.888   3.232
  368DOPC   C1A 4403  16.363   6.406   3.641
  368DOPC   D2A 4404  16.389   6.408   4.145
  368DOPC   C3A 4405  16.244   6.185   4.539
  368DOPC   C4A 4406  16.147   5.984   4.994
  368DOPC   C1B 4407  16.050   5.603   3.458
  368DOPC   D2B 4408  15.722   5.309   3.736
  368DOPC   C3B 4409  15.707   5.292   4.223
  368DOPC   C4B 4410  15.892   5.383   4.685
  369DOPC   NC3 4411   2.127   4.682   2.780
  369DOPC   PO4 4412   2.509   4.553   2.766
  369DOPC   GL1 4413   2.632   4.619   3.173
  369DOPC   GL2 4414   2.399   4.835   3.140
  369DOPC   C1A 4415   2.536   4.703   3.598
  369DOPC   D2A 4416   2.352   4.887   4.033
  369DOPC   C3A 4417   2.378   4.943   4.505
  369DOPC   C4A 4418   2.413   4.973   5.010
  369DOPC   C1B 4419   2.212   5.073   3.484
  369DOPC   D2B 4420   1.954   5.256   3.864
  369DOPC   C3B 4421   2.016   5.255   4.331
  369DOPC   C4B 4422   2.112   5.352   4.812
  370DOPC   NC3 4423   2.300   2.155   2.439
  370DOPC   PO4 4424   2.464   2.311   2.771
  370DOPC   GL1 4425   2.543   2.193   3.194
  370DOPC   GL2 4426   2.596   1.906   3.100
  370DOPC   C1A 4427   2.587   2.250   3.659
  370DOPC   D2A 4428   2.522   2.216   4.186
  370DOPC   C3A 4429   2.610   2.266   4.670
  370DOPC   C4A 4430   2.808   2.347   5.141
  370DOPC   C1B 4431   2.737   1.755   3.496
  370DOPC   D2B 4432   2.940   1.746   3.969
  370DOPC   C3B 4433   2.773   1.813   4.416
  370DOPC   C4B 4434   2.457   1.790   4.810
  371DOPC   NC3 4435  17.535   3.854   2.647
  371DOPC   PO4 4436  17.778   4.172   2.702
  371DOPC   GL1 4437  17.623   4.236   3.084
  371DOPC   GL2 4438  17.414   3.996   3.088
  371DOPC   C1A 4439  17.752   4.171   3.502
  371DOPC   D2A 4440  17.697   3.913   3.933
  371DOPC   C3A 4441  17.500   3.711   4.320
  371DOPC   C4A 4442  17.315   3.585   4.771
  371DOPC   C1B 4443  17.311   3.752   3.472
  371DOPC   D2B 4444  17.111   3.552   3.898
  371DOPC   C3B 4445  17.007   3.547   4.359
  371DOPC   C4B 4446  16.835   3.331   4.765
  372DOPC   NC3 4447  18.466   2.072   2.783
  372DOPC   PO4 4448  18.230   1.755   2.832
  372DOPC   GL1 4449  18.392   1.676   3.136
  372DOPC   GL2 4450  18.558   1.875   3.253
  372DOPC   C1A 4451  18.116   1.631   3.459
  372DOPC   D2A 4452  17.942   1.649   3.921
  372DOPC   C3A 4453  18.161   1.690   4.346
  372DOPC   C4A 4454  18.527   1.857   4.665
  372DOPC   C1B 4455  18.387   1.991   3.646
  372DOPC   D2B 4456  18.103   2.106   4.042
  372DOPC   C3B 4457  18.206   2.204   4.472
  372DOPC   C4B 4458  18.314   2.283   4.939
  373DOPC   NC3 4459  11.339   7.566   2.372
  373DOPC   PO4 4460  11.530   7.259   2.540
  373DOPC   GL1 4461  11.553   7.251   3.010
  373DOPC   GL2 4462  11.323   7.430   2.970
  373DOPC   C1A 4463  11.646   7.216   3.468
  373DOPC   D2A 4464  11.582   7.254   3.993
  373DOPC   C3A 4465  11.489   7.193   4.470
  373DOPC   C4A 4466  11.329   7.093   4.943
  373DOPC   C1B 4467  11.246   7.581   3.366
  373DOPC   D2B 4468  11.247   7.681   3.854
  373DOPC   C3B 4469  11.231   7.686   4.321
  373DOPC   C4B 4470  11.253   7.640   4.819
  374DOPC   NC3 4471  19.710   5.538   2.632
  374DOPC   PO4 4472  19.928   5.835   2.773
  374DOPC   GL1 4473  19.620   6.171   2.842
  374DOPC   GL2 4474  19.431   5.916   2.889
  374DOPC   C1A 4475  19.522   6.332   3.237
  374DOPC   D2A 4476  19.532   6.317   3.739
  374DOPC   C3A 4477  19.684   6.127   4.151
  374DOPC   C4A 4478  19.774   5.956   4.613
  374DOPC   C1B 4479  19.521   5.800   3.309
  374DOPC   D2B 4480  19.725   5.780   3.767
  374DOPC   C3B 4481  19.854   5.639   4.200
  374DOPC   C4B 4482  19.796   5.439   4.645
  375DOPC   NC3 4483   7.832   7.441   2.777
  375DOPC   PO4 4484   7.618   7.763   2.887
  375DOPC   GL1 4485   7.844   7.891   3.246
  375DOPC   GL2 4486   7.836   7.567   3.256
  375DOPC   C1A 4487   7.810   7.969   3.705
  375DOPC   D2A 4488   8.007   7.848   4.174
  375DOPC   C3A 4489   8.035   7.580   4.590
  375DOPC   C4A 4490   8.069   7.219   4.955
  375DOPC   C1B 4491   7.777   7.472   3.673
  375DOPC   D2B 4492   7.745   7.404   4.160
  375DOPC   C3B 4493   7.913   7.080   4.444
  375DOPC   C4B 4494   8.227   6.811   4.696
  376DOPC   NC3 4495  14.643   0.796   2.819
  376DOPC   PO4 4496  14.795   0.422   2.848
  376DOPC   GL1 4497  15.042   0.219   3.134
  376DOPC   GL2 4498  15.287   0.386   3.054
  376DOPC   C1A 4499  15.010   0.214   3.577
  376DOPC   D2A 4500  14.997   0.170   4.076
  376DOPC   C3A 4501  14.804   0.477   4.373
  376DOPC   C4A 4502  14.605   0.853   4.637
  376DOPC   C1B 4503  15.405   0.545   3.460
  376DOPC   D2B 4504  15.467   0.681   3.940
  376DOPC   C3B 4505  15.307   0.658   4.370
  376DOPC   C4B 4506  15.055   0.667   4.782
  377DOPC   NC3 4507   3.668   5.438   2.527
  377DOPC   PO4 4508   4.005   5.461   2.726
  377DOPC   GL1 4509   3.805   5.817   2.912
  377DOPC   GL2 4510   3.519   5.771   2.827
  377DOPC   C1A 4511   3.765   5.984   3.334
  377DOPC   D2A 4512   3.593   6.158   3.786
  377DOPC   C3A 4513   3.701   6.157   4.256
  377DOPC   C4A 4514   3.815   6.082   4.746
  377DOPC   C1B 4515   3.268   5.867   3.208
  377DOPC   D2B 4516   3.098   5.964   3.682
  377DOPC   C3B 4517   3.204   6.010   4.135
  377DOPC   C4B 4518   3.310   6.090   4.609
  378DOPC   NC3 4519   3.441   3.144   2.621
  378DOPC   PO4 4520   3.736   3.282   2.861
  378DOPC   GL1 4521   3.536   3.383   3.274
  378DOPC   GL2 4522   3.530   3.073   3.252
  378DOPC   C1A 4523   3.609   3.318   3.722
  378DOPC   D2A 4524   3.827   3.079   4.130
  378DOPC   C3A 4525   3.826   3.073   4.614
  378DOPC   C4A 4526   3.543   2.963   5.016
  378DOPC   C1B 4527   3.811   2.875   3.552
  378DOPC   D2B 4528   3.961   2.605   3.952
  378DOPC   C3B 4529   4.076   2.678   4.402
  378DOPC   C4B 4530   3.941   2.624   4.888
  379DOPC   NC3 4531  16.092   7.457   2.778
  379DOPC   PO4 4532  16.313   7.168   2.943
  379DOPC   GL1 4533  16.232   7.313   3.302
  379DOPC   GL2 4534  15.965   7.426   3.240
  379DOPC   C1A 4535  16.157   7.317   3.729
  379DOPC   D2A 4536  16.048   7.332   4.198
  379DOPC   C3A 4537  16.104   7.284   4.646
  379DOPC   C4A 4538  16.044   7.335   5.129
  379DOPC   C1B 4539  15.714   7.176   3.520
  379DOPC   D2B 4540  15.594   6.999   3.983
  379DOPC   C3B 4541  15.724   6.962   4.439
  379DOPC   C4B 4542  15.902   6.890   4.900
  380DOPC   NC3 4543  11.155   5.157   2.244
  380DOPC   PO4 4544  11.306   5.322   2.584
  380DOPC   GL1 4545  11.276   5.668   2.915
  380DOPC   GL2 4546  11.569   5.564   2.949
  380DOPC   C1A 4547  11.121   5.805   3.329
  380DOPC   D2A 4548  11.029   5.794   3.831
  380DOPC   C3A 4549  11.084   5.569   4.244
  380DOPC   C4A 4550  11.161   5.320   4.673
  380DOPC   C1B 4551  11.540   5.478   3.399
  380DOPC   D2B 4552  11.547   5.435   3.916
  380DOPC   C3B 4553  11.587   5.467   4.397
  380DOPC   C4B 4554  11.604   5.454   4.908
  381DOPC   NC3 4555   7.728   8.142   2.552
  381DOPC   PO4 4556   8.013   8.114   2.836
  381DOPC   GL1 4557   7.967   8.306   3.189
  381DOPC   GL2 4558   7.765   8.504   3.137
  381DOPC   C1A 4559   8.195   8.295   3.570
  381DOPC   D2A 4560   8.459   8.363   3.989
  381DOPC   C3A 4561   8.463   8.148   4.399
  381DOPC   C4A 4562   8.452   7.896   4.826
  381DOPC   C1B 4563   7.768   8.551   3.573
  381DOPC   D2B 4564   7.927   8.355   4.014
  381DOPC   C3B 4565   7.964   8.261   4.471
  381DOPC   C4B 4566   8.003   8.143   4.931
  382DOPC   NC3 4567   8.400   8.719   2.426
  382DOPC   PO4 4568   8.166   9.038   2.501
  382DOPC   GL1 4569   7.995   9.101   2.897
  382DOPC   GL2 4570   7.751   8.911   2.836
  382DOPC   C1A 4571   8.052   9.252   3.335
  382DOPC   D2A 4572   8.165   9.386   3.802
  382DOPC   C3A 4573   8.175   9.160   4.214
  382DOPC   C4A 4574   8.214   9.026   4.700
  382DOPC   C1B 4575   7.668   8.938   3.264
  382DOPC   D2B 4576   7.763   9.067   3.733
  382DOPC   C3B 4577   7.739   8.839   4.134
  382DOPC   C4B 4578   7.790   8.747   4.612
  383DOPC   NC3 4579   1.161   3.952   2.589
  383DOPC   PO4 4580   1.412   3.638   2.661
  383DOPC   GL1 4581   1.526   3.681   3.094
  383DOPC   GL2 4582   1.343   3.436   3.180
  383DOPC   C1A 4583   1.740   3.641   3.486
  383DOPC   D2A 4584   1.835   3.749   3.973
  383DOPC   C3A 4585   1.794   3.702   4.441
  383DOPC   C4A 4586   1.476   3.833   4.797
  383DOPC   C1B 4587   1.262   3.427   3.653
  383DOPC   D2B 4588   1.040   3.341   4.121
  383DOPC   C3B 4589   0.962   3.379   4.606
  383DOPC   C4B 4590   0.849   3.310   5.104
  384DOPC   NC3 4591   4.130   5.904   2.572
  384DOPC   PO4 4592   3.913   6.237   2.622
  384DOPC   GL1 4593   4.086   6.344   2.994
  384DOPC   GL2 4594   4.170   6.038   3.019
  384DOPC   C1A 4595   4.200   6.330   3.398
  384DOPC   D2A 4596   4.109   6.158   3.842
  384DOPC   C3A 4597   4.160   6.390   4.239
  384DOPC   C4A 4598   4.165   6.466   4.722
  384DOPC   C1B 4599   4.272   5.833   3.406
  384DOPC   D2B 4600   4.451   5.771   3.880
  384DOPC   C3B 4601   4.680   5.869   4.293
  384DOPC   C4B 4602   4.796   6.009   4.769
  385DOPC   NC3 4603   7.816   4.778   2.464
  385DOPC   PO4 4604   7.574   4.569   2.703
  385DOPC   GL1 4605   7.462   4.763   3.060
  385DOPC   GL2 4606   7.483   5.043   2.914
  385DOPC   C1A 4607   7.348   4.778   3.502
  385DOPC   D2A 4608   7.342   4.850   4.002
  385DOPC   C3A 4609   7.275   4.857   4.471
  385DOPC   C4A 4610   7.362   4.884   4.960
  385DOPC   C1B 4611   7.371   5.295   3.273
  385DOPC   D2B 4612   7.236   5.289   3.755
  385DOPC   C3B 4613   7.304   5.308   4.225
  385DOPC   C4B 4614   7.226   5.322   4.720
  386DOPC   NC3 4615   0.912   2.501   2.357
  386DOPC   PO4 4616   0.602   2.510   2.607
  386DOPC   GL1 4617   0.861   2.417   2.933
  386DOPC   GL2 4618   1.083   2.287   2.764
  386DOPC   C1A 4619   0.835   2.181   3.308
  386DOPC   D2A 4620   0.737   1.915   3.710
  386DOPC   C3A 4621   0.888   1.993   4.145
  386DOPC   C4A 4622   1.068   2.030   4.612
  386DOPC   C1B 4623   1.309   2.076   3.101
  386DOPC   D2B 4624   1.268   1.959   3.611
  386DOPC   C3B 4625   1.373   1.822   4.070
  386DOPC   C4B 4626   1.457   1.685   4.553
  387DOPC   NC3 4627  11.465   8.631   2.608
  387DOPC   PO4 4628  11.494   8.988   2.776
  387DOPC   GL1 4629  11.329   8.796   3.158
  387DOPC   GL2 4630  11.368   9.092   3.215
  387DOPC   C1A 4631  11.124   8.613   3.515
  387DOPC   D2A 4632  11.175   8.484   3.987
  387DOPC   C3A 4633  11.269   8.640   4.412
  387DOPC   C4A 4634  11.338   8.856   4.852
  387DOPC   C1B 4635  11.370   9.091   3.644
  387DOPC   D2B 4636  11.409   9.029   4.116
  387DOPC   C3B 4637  11.044   9.084   4.375
  387DOPC   C4B 4638  10.692   9.145   4.697
  388DOPC   NC3 4639   5.863   7.669   2.551
  388DOPC   PO4 4640   5.712   7.993   2.734
  388DOPC   GL1 4641   5.835   8.143   3.106
  388DOPC   GL2 4642   6.126   8.107   3.029
  388DOPC   C1A 4643   5.745   7.929   3.484
  388DOPC   D2A 4644   5.697   7.626   3.893
  388DOPC   C3A 4645   5.732   7.928   4.262
  388DOPC   C4A 4646   5.589   8.174   4.673
  388DOPC   C1B 4647   6.240   8.072   3.458
  388DOPC   D2B 4648   6.207   8.179   3.965
  388DOPC   C3B 4649   6.059   8.355   4.396
  388DOPC   C4B 4650   5.920   8.518   4.853
  389DOPC   NC3 4651   9.064   2.069   2.510
  389DOPC   PO4 4652   8.823   1.794   2.675
  389DOPC   GL1 4653   8.660   1.675   3.054
  389DOPC   GL2 4654   8.508   1.950   3.011
  389DOPC   C1A 4655   8.875   1.617   3.456
  389DOPC   D2A 4656   8.958   1.663   3.960
  389DOPC   C3A 4657   8.919   1.631   4.433
  389DOPC   C4A 4658   9.031   1.767   4.904
  389DOPC   C1B 4659   8.725   2.137   3.349
  389DOPC   D2B 4660   8.965   2.147   3.782
  389DOPC   C3B 4661   8.795   2.092   4.221
  389DOPC   C4B 4662   8.621   1.994   4.672
  390DOPC   NC3 4663  18.005   6.130   2.576
  390DOPC   PO4 4664  18.051   5.767   2.726
  390DOPC   GL1 4665  18.216   5.857   3.046
  390DOPC   GL2 4666  18.257   6.154   3.006
  390DOPC   C1A 4667  18.062   5.764   3.443
  390DOPC   D2A 4668  18.097   5.486   3.853
  390DOPC   C3A 4669  18.012   5.442   4.303
  390DOPC   C4A 4670  17.929   5.465   4.788
  390DOPC   C1B 4671  18.090   6.303   3.383
  390DOPC   D2B 4672  18.002   6.397   3.874
  390DOPC   C3B 4673  18.191   6.272   4.292
  390DOPC   C4B 4674  18.464   6.077   4.670
  391DOPC   NC3 4675  18.852   6.392   2.488
  391DOPC   PO4 4676  19.170   6.274   2.690
  391DOPC   GL1 4677  19.027   6.405   3.058
  391DOPC   GL2 4678  18.741   6.305   3.003
  391DOPC   C1A 4679  19.077   6.532   3.486
  391DOPC   D2A 4680  18.983   6.671   3.958
  391DOPC   C3A 4681  19.041   6.655   4.427
  391DOPC   C4A 4682  19.103   6.624   4.916
  391DOPC   C1B 4683  18.588   6.400   3.413
  391DOPC   D2B 4684  18.490   6.548   3.886
  391DOPC   C3B 4685  18.687   6.335   4.256
  391DOPC   C4B 4686  18.967   6.193   4.646
  392DOPC   NC3 4687  18.590   9.058   2.747
  392DOPC   PO4 4688  18.272   9.177   2.947
  392DOPC   GL1 4689  18.438   8.935   3.311
  392DOPC   GL2 4690  18.681   9.064   3.221
  392DOPC   C1A 4691  18.447   8.871   3.758
  392DOPC   D2A 4692  18.418   8.826   4.255
  392DOPC   C3A 4693  18.457   8.958   4.710
  392DOPC   C4A 4694  18.526   9.129   5.178
  392DOPC   C1B 4695  18.781   9.227   3.604
  392DOPC   D2B 4696  18.782   9.160   4.096
  392DOPC   C3B 4697  18.809   9.298   4.542
  392DOPC   C4B 4698  18.877   9.506   4.975
  393DOPC   NC3 4699  14.241   1.257   2.406
  393DOPC   PO4 4700  14.496   1.295   2.714
  393DOPC   GL1 4701  14.380   1.102   3.082
  393DOPC   GL2 4702  14.102   1.186   3.038
  393DOPC   C1A 4703  14.345   1.003   3.523
  393DOPC   D2A 4704  14.125   1.009   3.985
  393DOPC   C3A 4705  14.132   0.956   4.458
  393DOPC   C4A 4706  14.204   0.896   4.948
  393DOPC   C1B 4707  14.024   1.382   3.439
  393DOPC   D2B 4708  13.933   1.490   3.928
  393DOPC   C3B 4709  14.182   1.451   4.332
  393DOPC   C4B 4710  14.392   1.327   4.771
  394DOPC   NC3 4711   1.323   4.977   2.647
  394DOPC   PO4 4712   0.934   4.967   2.770
  394DOPC   GL1 4713   0.956   5.066   3.214
  394DOPC   GL2 4714   1.265   5.068   3.201
  394DOPC   C1A 4715   0.938   5.011   3.670
  394DOPC   D2A 4716   1.027   4.958   4.175
  394DOPC   C3A 4717   0.997   4.898   4.656
  394DOPC   C4A 4718   0.848   5.014   5.129
  394DOPC   C1B 4719   1.460   5.080   3.644
  394DOPC   D2B 4720   1.547   5.092   4.156
  394DOPC   C3B 4721   1.571   5.283   4.607
  394DOPC   C4B 4722   1.634   5.460   5.080
  395DOPC   NC3 4723   2.639   3.027   2.636
  395DOPC   PO4 4724   2.952   3.280   2.688
  395DOPC   GL1 4725   3.121   3.159   3.070
  395DOPC   GL2 4726   2.915   2.911   3.012
  395DOPC   C1A 4727   2.978   3.290   3.484
  395DOPC   D2A 4728   2.686   3.479   3.867
  395DOPC   C3A 4729   2.689   3.421   4.336
  395DOPC   C4A 4730   2.697   3.240   4.804
  395DOPC   C1B 4731   2.515   2.861   3.237
  395DOPC   D2B 4732   2.200   2.871   3.659
  395DOPC   C3B 4733   2.052   2.978   4.101
  395DOPC   C4B 4734   1.967   3.179   4.554
  396DOPC   NC3 4735   6.434   9.417   2.561
  396DOPC   PO4 4736   6.077   9.359   2.744
  396DOPC   GL1 4737   6.205   9.600   3.026
  396DOPC   GL2 4738   6.513   9.545   3.012
  396DOPC   C1A 4739   6.109   9.540   3.443
  396DOPC   D2A 4740   5.929   9.584   3.910
  396DOPC   C3A 4741   6.183   9.678   4.281
  396DOPC   C4A 4742   6.462   9.705   4.690
  396DOPC   C1B 4743   6.655   9.589   3.440
  396DOPC   D2B 4744   6.792   9.611   3.927
  396DOPC   C3B 4745   6.774   9.855   4.324
  396DOPC   C4B 4746   6.743   0.121   4.747
  397DOPC   NC3 4747   4.533   0.536   2.429
  397DOPC   PO4 4748   4.709   0.315   2.718
  397DOPC   GL1 4749   4.538   0.651   2.913
  397DOPC   GL2 4750   4.254   0.550   2.797
  397DOPC   C1A 4751   4.505   0.538   3.341
  397DOPC   D2A 4752   4.502   0.347   3.803
  397DOPC   C3A 4753   4.575   0.487   4.242
  397DOPC   C4A 4754   4.593   0.695   4.694
  397DOPC   C1B 4755   4.028   0.578   3.168
  397DOPC   D2B 4756   4.080   0.669   3.657
  397DOPC   C3B 4757   3.918   0.546   4.081
  397DOPC   C4B 4758   3.800   0.413   4.549
  398DOPC   NC3 4759  14.054   3.036   2.507
  398DOPC   PO4 4760  14.101   2.715   2.744
  398DOPC   GL1 4761  14.283   2.853   3.124
  398DOPC   GL2 4762  14.557   2.828   2.982
  398DOPC   C1A 4763  14.297   2.935   3.584
  398DOPC   D2A 4764  14.312   2.996   4.091
  398DOPC   C3A 4765  14.227   3.071   4.559
  398DOPC   C4A 4766  14.116   3.344   4.979
  398DOPC   C1B 4767  14.686   2.703   3.389
  398DOPC   D2B 4768  14.632   2.660   3.886
  398DOPC   C3B 4769  14.547   2.585   4.347
  398DOPC   C4B 4770  14.559   2.481   4.831
  399DOPC   NC3 4771  12.634   3.854   2.612
  399DOPC   PO4 4772  12.755   3.517   2.804
  399DOPC   GL1 4773  12.547   3.556   3.210
  399DOPC   GL2 4774  12.464   3.827   3.081
  399DOPC   C1A 4775  12.469   3.634   3.658
  399DOPC   D2A 4776  12.363   3.654   4.160
  399DOPC   C3A 4777  12.469   3.671   4.636
  399DOPC   C4A 4778  12.734   3.861   5.032
  399DOPC   C1B 4779  12.368   4.102   3.423
  399DOPC   D2B 4780  12.172   4.359   3.830
  399DOPC   C3B 4781  12.110   4.491   4.300
  399DOPC   C4B 4782  12.173   4.665   4.774
  400DOPC   NC3 4783  12.774   5.771   2.678
  400DOPC   PO4 4784  12.477   5.856   2.938
  400DOPC   GL1 4785  12.650   5.862   3.342
  400DOPC   GL2 4786  12.386   5.783   3.472
  400DOPC   C1A 4787  12.850   5.778   3.730
  400DOPC   D2A 4788  12.858   5.734   4.237
  400DOPC   C3A 4789  12.892   5.496   4.662
  400DOPC   C4A 4790  12.781   5.252   5.095
  400DOPC   C1B 4791  12.397   5.655   3.925
  400DOPC   D2B 4792  12.458   5.404   4.370
  400DOPC   C3B 4793  12.365   5.165   4.776
  400DOPC   C4B 4794  12.385   4.924   5.217
  401DOPC   NC3 4795  12.794   1.724   2.359
  401DOPC   PO4 4796  12.455   1.622   2.556
  401DOPC   GL1 4797  12.535   1.429   2.922
  401DOPC   GL2 4798  12.265   1.452   3.055
  401DOPC   C1A 4799  12.805   1.578   3.244
  401DOPC   D2A 4800  12.919   1.548   3.738
  401DOPC   C3A 4801  12.809   1.556   4.206
  401DOPC   C4A 4802  12.648   1.537   4.678
  401DOPC   C1B 4803  12.361   1.562   3.493
  401DOPC   D2B 4804  12.444   1.809   3.927
  401DOPC   C3B 4805  12.372   1.862   4.395
  401DOPC   C4B 4806  12.283   1.920   4.889
  402DOPC   NC3 4807  15.901   1.384   2.659
  402DOPC   PO4 4808  16.296   1.368   2.635
  402DOPC   GL1 4809  16.454   1.126   2.975
  402DOPC   GL2 4810  16.140   1.130   3.049
  402DOPC   C1A 4811  16.493   1.040   3.397
  402DOPC   D2A 4812  16.394   0.920   3.878
  402DOPC   C3A 4813  16.268   1.200   4.236
  402DOPC   C4A 4814  16.223   1.547   4.598
  402DOPC   C1B 4815  16.009   1.277   3.466
  402DOPC   D2B 4816  15.928   1.496   3.917
  402DOPC   C3B 4817  15.800   1.401   4.361
  402DOPC   C4B 4818  15.947   1.160   4.777
  403DOPC   NC3 4819  12.571   8.189   2.399
  403DOPC   PO4 4820  12.337   8.240   2.721
  403DOPC   GL1 4821  12.476   8.141   3.087
  403DOPC   GL2 4822  12.607   7.906   3.156
  403DOPC   C1A 4823  12.408   8.291   3.466
  403DOPC   D2A 4824  12.455   8.388   3.952
  403DOPC   C3A 4825  12.423   8.244   4.409
  403DOPC   C4A 4826  12.325   8.113   4.881
  403DOPC   C1B 4827  12.636   7.843   3.606
  403DOPC   D2B 4828  12.649   7.922   4.107
  403DOPC   C3B 4829  12.650   7.804   4.580
  403DOPC   C4B 4830  12.748   7.919   5.068
  404DOPC   NC3 4831   5.255   1.253   2.730
  404DOPC   PO4 4832   4.871   1.211   2.838
  404DOPC   GL1 4833   4.946   0.865   3.114
  404DOPC   GL2 4834   5.146   1.099   3.176
  404DOPC   C1A 4835   4.893   0.925   3.538
  404DOPC   D2A 4836   4.883   1.231   3.915
  404DOPC   C3A 4837   4.790   1.001   4.292
  404DOPC   C4A 4838   5.103   1.044   4.650
  404DOPC   C1B 4839   4.934   1.415   3.441
  404DOPC   D2B 4840   4.897   1.739   3.833
  404DOPC   C3B 4841   4.844   1.601   4.288
  404DOPC   C4B 4842   4.878   1.491   4.777
  405DOPC   NC3 4843  14.921   8.705   2.374
  405DOPC   PO4 4844  14.974   8.411   2.646
  405DOPC   GL1 4845  14.776   8.286   3.089
  405DOPC   GL2 4846  14.894   8.567   3.114
  405DOPC   C1A 4847  14.759   8.182   3.541
  405DOPC   D2A 4848  14.672   8.116   4.039
  405DOPC   C3A 4849  14.784   8.460   4.369
  405DOPC   C4A 4850  14.836   8.819   4.712
  405DOPC   C1B 4851  15.007   8.760   3.509
  405DOPC   D2B 4852  14.939   9.145   3.839
  405DOPC   C3B 4853  15.133   9.242   4.268
  405DOPC   C4B 4854  15.212   9.191   4.755
  406DOPC   NC3 4855  16.698   7.291   2.655
  406DOPC   PO4 4856  17.054   7.436   2.728
  406DOPC   GL1 4857  16.974   7.294   3.075
  406DOPC   GL2 4858  16.754   7.107   3.099
  406DOPC   C1A 4859  16.945   7.486   3.448
  406DOPC   D2A 4860  16.843   7.659   3.899
  406DOPC   C3A 4861  16.916   7.529   4.340
  406DOPC   C4A 4862  17.013   7.430   4.816
  406DOPC   C1B 4863  16.602   7.125   3.532
  406DOPC   D2B 4864  16.571   7.261   4.024
  406DOPC   C3B 4865  16.585   7.135   4.475
  406DOPC   C4B 4866  16.439   6.985   4.922
  407DOPC   NC3 4867   1.855   3.850   2.737
  407DOPC   PO4 4868   1.855   4.245   2.800
  407DOPC   GL1 4869   2.077   4.134   3.161
  407DOPC   GL2 4870   2.261   4.362   3.107
  407DOPC   C1A 4871   1.958   4.128   3.606
  407DOPC   D2A 4872   1.829   4.274   4.081
  407DOPC   C3A 4873   1.856   4.229   4.556
  407DOPC   C4A 4874   1.854   4.074   5.033
  407DOPC   C1B 4875   2.080   4.585   3.416
  407DOPC   D2B 4876   1.873   4.752   3.836
  407DOPC   C3B 4877   1.921   4.742   4.300
  407DOPC   C4B 4878   2.005   4.719   4.783
  408DOPC   NC3 4879  17.165   4.934   2.520
  408DOPC   PO4 4880  16.789   4.878   2.659
  408DOPC   GL1 4881  17.001   4.784   3.009
  408DOPC   GL2 4882  17.193   5.017   2.969
  408DOPC   C1A 4883  17.079   4.719   3.442
  408DOPC   D2A 4884  17.262   4.541   3.886
  408DOPC   C3A 4885  17.398   4.714   4.292
  408DOPC   C4A 4886  17.321   4.952   4.714
  408DOPC   C1B 4887  17.374   5.106   3.355
  408DOPC   D2B 4888  17.384   5.037   3.854
  408DOPC   C3B 4889  17.317   5.238   4.282
  408DOPC   C4B 4890  17.424   5.463   4.716
  409DOPC   NC3 4891   7.431   7.187   2.462
  409DOPC   PO4 4892   7.241   7.473   2.672
  409DOPC   GL1 4893   7.464   7.197   2.941
  409DOPC   GL2 4894   7.184   7.101   3.021
  409DOPC   C1A 4895   7.679   7.101   3.314
  409DOPC   D2A 4896   7.480   7.073   3.775
  409DOPC   C3A 4897   7.401   7.043   4.246
  409DOPC   C4A 4898   7.302   6.945   4.730
  409DOPC   C1B 4899   7.241   7.357   3.404
  409DOPC   D2B 4900   7.318   7.538   3.879
  409DOPC   C3B 4901   7.272   7.567   4.346
  409DOPC   C4B 4902   7.166   7.666   4.822
  410DOPC   NC3 4903  16.604   5.692   2.551
  410DOPC   PO4 4904  16.489   5.348   2.718
  410DOPC   GL1 4905  16.577   5.574   3.020
  410DOPC   GL2 4906  16.815   5.742   2.961
  410DOPC   C1A 4907  16.536   5.420   3.414
  410DOPC   D2A 4908  16.509   5.202   3.860
  410DOPC   C3A 4909  16.745   5.292   4.256
  410DOPC   C4A 4910  16.946   5.298   4.696
  410DOPC   C1B 4911  17.090   5.771   3.311
  410DOPC   D2B 4912  17.249   5.871   3.777
  410DOPC   C3B 4913  17.143   5.875   4.243
  410DOPC   C4B 4914  16.987   5.805   4.716
  411DOPC   NC3 4915  15.236   2.538   2.559
  411DOPC   PO4 4916  14.990   2.690   2.831
  411DOPC   GL1 4917  15.138   2.644   3.230
  411DOPC   GL2 4918  15.243   2.933   3.209
  411DOPC   C1A 4919  15.111   2.652   3.673
  411DOPC   D2A 4920  15.069   2.706   4.161
  411DOPC   C3A 4921  15.033   2.504   4.582
  411DOPC   C4A 4922  15.441   2.433   4.874
  411DOPC   C1B 4923  14.929   3.128   3.465
  411DOPC   D2B 4924  14.841   3.132   3.960
  411DOPC   C3B 4925  14.778   3.028   4.412
  411DOPC   C4B 4926  14.875   2.933   4.880
  412DOPC   NC3 4927  13.504   7.066   2.683
  412DOPC   PO4 4928  13.206   6.800   2.696
  412DOPC   GL1 4929  13.413   6.638   3.052
  412DOPC   GL2 4930  13.646   6.840   3.064
  412DOPC   C1A 4931  13.394   6.598   3.510
  412DOPC   D2A 4932  13.452   6.452   3.998
  412DOPC   C3A 4933  13.332   6.668   4.397
  412DOPC   C4A 4934  12.950   6.541   4.694
  412DOPC   C1B 4935  13.765   6.948   3.504
  412DOPC   D2B 4936  13.955   7.011   3.969
  412DOPC   C3B 4937  13.896   7.029   4.433
  412DOPC   C4B 4938  13.692   6.905   4.860
  413DOPC   NC3 4939  15.548   3.840   2.554
  413DOPC   PO4 4940  15.853   4.076   2.440
  413DOPC   GL1 4941  15.783   4.291   2.819
  413DOPC   GL2 4942  15.847   3.989   2.901
  413DOPC   C1A 4943  15.662   4.393   3.230
  413DOPC   D2A 4944  15.547   4.402   3.717
  413DOPC   C3A 4945  15.565   4.296   4.170
  413DOPC   C4A 4946  15.642   4.197   4.654
  413DOPC   C1B 4947  15.956   4.011   3.321
  413DOPC   D2B 4948  15.832   3.990   3.807
  413DOPC   C3B 4949  15.986   4.038   4.241
  413DOPC   C4B 4950  16.177   4.093   4.681
  414DOPC   NC3 4951   3.953   9.689   2.465
  414DOPC   PO4 4952   4.299   9.520   2.422
  414DOPC   GL1 4953   4.292   9.518   2.886
  414DOPC   GL2 4954   4.208   9.824   2.858
  414DOPC   C1A 4955   4.106   9.543   3.305
  414DOPC   D2A 4956   3.904   9.554   3.779
  414DOPC   C3A 4957   4.094   9.566   4.216
  414DOPC   C4A 4958   4.272   9.702   4.669
  414DOPC   C1B 4959   4.149   0.055   3.258
  414DOPC   D2B 4960   3.916   0.193   3.691
  414DOPC   C3B 4961   3.873   0.037   4.137
  414DOPC   C4B 4962   3.797   9.872   4.602
  415DOPC   NC3 4963   5.915   2.908   2.921
  415DOPC   PO4 4964   6.112   2.575   2.820
  415DOPC   GL1 4965   6.032   2.312   3.146
  415DOPC   GL2 4966   5.750   2.459   3.117
  415DOPC   C1A 4967   6.037   2.384   3.581
  415DOPC   D2A 4968   5.863   2.458   4.036
  415DOPC   C3A 4969   6.062   2.575   4.452
  415DOPC   C4A 4970   6.330   2.686   4.859
  415DOPC   C1B 4971   5.575   2.585   3.496
  415DOPC   D2B 4972   5.314   2.603   3.912
  415DOPC   C3B 4973   5.541   2.751   4.292
  415DOPC   C4B 4974   5.766   2.907   4.713
  416DOPC   NC3 4975  14.329   3.905   2.565
  416DOPC   PO4 4976  14.707   3.764   2.521
  416DOPC   GL1 4977  14.887   4.022   2.902
  416DOPC   GL2 4978  14.625   4.169   2.818
  416DOPC   C1A 4979  14.902   4.057   3.373
  416DOPC   D2A 4980  14.752   4.164   3.866
  416DOPC   C3A 4981  14.709   4.180   4.339
  416DOPC   C4A 4982  14.619   4.202   4.840
  416DOPC   C1B 4983  14.419   4.231   3.213
  416DOPC   D2B 4984  14.260   4.275   3.701
  416DOPC   C3B 4985  14.248   4.321   4.179
  416DOPC   C4B 4986  14.171   4.356   4.673
  417DOPC   NC3 4987   5.566   2.485   2.661
  417DOPC   PO4 4988   5.716   2.131   2.785
  417DOPC   GL1 4989   5.534   1.934   3.115
  417DOPC   GL2 4990   5.708   1.677   3.089
  417DOPC   C1A 4991   5.702   2.022   3.503
  417DOPC   D2A 4992   5.845   1.930   3.975
  417DOPC   C3A 4993   5.932   2.092   4.409
  417DOPC   C4A 4994   6.044   2.269   4.863
  417DOPC   C1B 4995   5.822   1.502   3.499
  417DOPC   D2B 4996   5.803   1.398   4.006
  417DOPC   C3B 4997   5.740   1.631   4.425
  417DOPC   C4B 4998   5.645   1.930   4.822
  418DOPC   NC3 4999   1.955   3.378   2.507
  418DOPC   PO4 5000   2.144   3.085   2.687
  418DOPC   GL1 5001   2.205   3.254   3.026
  418DOPC   GL2 5002   2.114   3.543   2.983
  418DOPC   C1A 5003   1.941   3.169   3.345
  418DOPC   D2A 5004   1.678   3.106   3.757
  418DOPC   C3A 5005   1.593   3.252   4.187
  418DOPC   C4A 5006   1.482   3.340   4.656
  418DOPC   C1B 5007   2.226   3.750   3.360
  418DOPC   D2B 5008   2.318   3.846   3.839
  418DOPC   C3B 5009   2.225   3.958   4.285
  418DOPC   C4B 5010   2.302   4.032   4.773
  419DOPC   NC3 5011   6.914   7.178   2.421
  419DOPC   PO4 5012   6.722   7.296   2.746
  419DOPC   GL1 5013   6.740   6.963   2.997
  419DOPC   GL2 5014   6.435   6.937   3.017
  419DOPC   C1A 5015   6.821   7.066   3.428
  419DOPC   D2A 5016   6.984   7.121   3.915
  419DOPC   C3A 5017   6.917   7.192   4.387
  419DOPC   C4A 5018   6.892   7.236   4.888
  419DOPC   C1B 5019   6.322   6.891   3.458
  419DOPC   D2B 5020   6.247   6.922   3.956
  419DOPC   C3B 5021   6.399   7.195   4.318
  419DOPC   C4B 5022   6.471   7.467   4.725
  420DOPC   NC3 5023  11.947   6.763   2.595
  420DOPC   PO4 5024  11.650   6.822   2.856
  420DOPC   GL1 5025  11.774   6.810   3.284
  420DOPC   GL2 5026  12.021   6.953   3.165
  420DOPC   C1A 5027  11.777   6.805   3.755
  420DOPC   D2A 5028  11.790   6.808   4.257
  420DOPC   C3A 5029  11.789   6.640   4.707
  420DOPC   C4A 5030  11.836   6.413   5.158
  420DOPC   C1B 5031  12.167   7.019   3.559
  420DOPC   D2B 5032  12.274   7.005   4.042
  420DOPC   C3B 5033  12.242   6.804   4.465
  420DOPC   C4B 5034  12.249   6.637   4.935
  421DOPC   NC3 5035  12.014   3.069   2.640
  421DOPC   PO4 5036  11.854   3.425   2.723
  421DOPC   GL1 5037  12.180   3.501   2.966
  421DOPC   GL2 5038  12.319   3.244   2.952
  421DOPC   C1A 5039  12.071   3.474   3.386
  421DOPC   D2A 5040  11.820   3.416   3.813
  421DOPC   C3A 5041  11.865   3.515   4.271
  421DOPC   C4A 5042  11.886   3.640   4.746
  421DOPC   C1B 5043  12.047   3.006   3.213
  421DOPC   D2B 5044  11.895   2.919   3.682
  421DOPC   C3B 5045  11.837   3.019   4.146
  421DOPC   C4B 5046  11.793   3.124   4.635
  422DOPC   NC3 5047   9.472   1.291   2.593
  422DOPC   PO4 5048   9.830   1.176   2.718
  422DOPC   GL1 5049   9.642   0.929   2.996
  422DOPC   GL2 5050   9.377   1.083   2.993
  422DOPC   C1A 5051   9.836   0.887   3.397
  422DOPC   D2A 5052  10.015   0.766   3.862
  422DOPC   C3A 5053   9.959   0.788   4.334
  422DOPC   C4A 5054   9.679   0.995   4.687
  422DOPC   C1B 5055   9.404   1.339   3.345
  422DOPC   D2B 5056   9.446   1.531   3.802
  422DOPC   C3B 5057   9.354   1.412   4.241
  422DOPC   C4B 5058   9.246   1.306   4.717
  423DOPC   NC3 5059  10.140   8.139   2.695
  423DOPC   PO4 5060  10.450   8.336   2.866
  423DOPC   GL1 5061  10.363   8.029   3.121
  423DOPC   GL2 5062  10.059   8.073   3.153
  423DOPC   C1A 5063  10.435   8.011   3.546
  423DOPC   D2A 5064  10.378   8.042   4.051
  423DOPC   C3A 5065  10.087   8.102   4.429
  423DOPC   C4A 5066   9.878   8.168   4.878
  423DOPC   C1B 5067   9.916   7.987   3.585
  423DOPC   D2B 5068   9.816   7.828   4.062
  423DOPC   C3B 5069   9.559   8.057   4.405
  423DOPC   C4B 5070   9.389   8.332   4.782
  424DOPC   NC3 5071  18.315   0.865   2.817
  424DOPC   PO4 5072  18.670   0.945   3.002
  424DOPC   GL1 5073  18.719   0.988   3.437
  424DOPC   GL2 5074  19.010   0.918   3.421
  424DOPC   C1A 5075  18.648   1.069   3.878
  424DOPC   D2A 5076  18.648   0.966   4.370
  424DOPC   C3A 5077  18.793   0.803   4.783
  424DOPC   C4A 5078  18.916   0.612   5.221
  424DOPC   C1B 5079  19.152   0.893   3.857
  424DOPC   D2B 5080  19.293   0.783   4.336
  424DOPC   C3B 5081  19.100   0.436   4.609
  424DOPC   C4B 5082  18.801   0.187   4.926
  425DOPC   NC3 5083  11.958   7.235   2.792
  425DOPC   PO4 5084  12.304   7.301   2.977
  425DOPC   GL1 5085  12.089   7.405   3.349
  425DOPC   GL2 5086  11.864   7.533   3.186
  425DOPC   C1A 5087  12.028   7.416   3.819
  425DOPC   D2A 5088  11.994   7.303   4.333
  425DOPC   C3A 5089  12.116   7.158   4.788
  425DOPC   C4A 5090  12.122   7.347   5.259
  425DOPC   C1B 5091  11.707   7.730   3.562
  425DOPC   D2B 5092  11.724   7.789   4.061
  425DOPC   C3B 5093  11.702   7.681   4.520
  425DOPC   C4B 5094  11.714   7.422   4.942
  426DOPC   NC3 5095   0.610   8.524   2.520
  426DOPC   PO4 5096   0.277   8.337   2.637
  426DOPC   GL1 5097   0.455   8.224   3.002
  426DOPC   GL2 5098   0.658   8.467   3.007
  426DOPC   C1A 5099   0.338   8.307   3.411
  426DOPC   D2A 5100   0.466   8.288   3.879
  426DOPC   C3A 5101   0.331   8.404   4.304
  426DOPC   C4A 5102   0.151   8.665   4.673
  426DOPC   C1B 5103   0.708   8.658   3.437
  426DOPC   D2B 5104   0.623   8.771   3.941
  426DOPC   C3B 5105   0.606   8.821   4.425
  426DOPC   C4B 5106   0.489   9.024   4.875
  427DOPC   NC3 5107   7.570   3.325   2.649
  427DOPC   PO4 5108   7.317   3.636   2.645
  427DOPC   GL1 5109   7.456   3.822   3.023
  427DOPC   GL2 5110   7.648   3.549   3.069
  427DOPC   C1A 5111   7.351   4.133   3.349
  427DOPC   D2A 5112   7.377   4.344   3.822
  427DOPC   C3A 5113   7.382   4.133   4.258
  427DOPC   C4A 5114   7.576   3.901   4.668
  427DOPC   C1B 5115   7.752   3.336   3.465
  427DOPC   D2B 5116   7.807   3.038   3.873
  427DOPC   C3B 5117   7.761   3.096   4.341
  427DOPC   C4B 5118   7.509   3.284   4.727
  428DOPC   NC3 5119   9.810   6.421   2.435
  428DOPC   PO4 5120  10.042   6.542   2.746
  428DOPC   GL1 5121  10.100   6.733   3.130
  428DOPC   GL2 5122  10.043   7.019   3.060
  428DOPC   C1A 5123   9.958   6.686   3.561
  428DOPC   D2A 5124   9.889   6.654   4.057
  428DOPC   C3A 5125   9.805   6.738   4.513
  428DOPC   C4A 5126   9.679   6.852   4.973
  428DOPC   C1B 5127   9.878   7.208   3.455
  428DOPC   D2B 5128   9.746   7.322   3.946
  428DOPC   C3B 5129   9.532   7.138   4.345
  428DOPC   C4B 5130   9.258   6.865   4.675
  429DOPC   NC3 5131  19.814   8.495   2.682
  429DOPC   PO4 5132  19.539   8.784   2.685
  429DOPC   GL1 5133  19.320   8.851   2.996
  429DOPC   GL2 5134  19.488   9.090   3.088
  429DOPC   C1A 5135  19.333   8.640   3.367
  429DOPC   D2A 5136  19.299   8.459   3.814
  429DOPC   C3A 5137  19.316   8.601   4.256
  429DOPC   C4A 5138  19.337   8.765   4.706
  429DOPC   C1B 5139  19.594   9.045   3.518
  429DOPC   D2B 5140  19.647   8.848   3.980
  429DOPC   C3B 5141  19.749   8.915   4.439
  429DOPC   C4B 5142  19.957   9.169   4.817
  430DOPC   NC3 5143   0.629   0.345   2.671
  430DOPC   PO4 5144   0.793   9.990   2.743
  430DOPC   GL1 5145   0.926   0.026   3.135
  430DOPC   GL2 5146   0.904   0.350   3.104
  430DOPC   C1A 5147   0.786   0.123   3.539
  430DOPC   D2A 5148   0.759   0.291   4.009
  430DOPC   C3A 5149   0.552   0.454   4.411
  430DOPC   C4A 5150   0.229   0.577   4.765
  430DOPC   C1B 5151   0.690   0.613   3.461
  430DOPC   D2B 5152   0.417   0.679   3.909
  430DOPC   C3B 5153   0.196   0.830   4.321
  430DOPC   C4B 5154   0.046   1.050   4.765
  431DOPC   NC3 5155  14.210   7.943   2.570
  431DOPC   PO4 5156  14.566   8.066   2.714
  431DOPC   GL1 5157  14.344   8.123   3.094
  431DOPC   GL2 5158  14.365   8.427   3.021
  431DOPC   C1A 5159  14.251   8.190   3.528
  431DOPC   D2A 5160  14.165   8.277   4.007
  431DOPC   C3A 5161  14.339   8.266   4.438
  431DOPC   C4A 5162  14.437   8.510   4.862
  431DOPC   C1B 5163  14.521   8.607   3.404
  431DOPC   D2B 5164  14.692   8.624   3.887
  431DOPC   C3B 5165  14.694   8.953   4.240
  431DOPC   C4B 5166  14.717   9.331   4.579
  432DOPC   NC3 5167  11.842   8.181   2.620
  432DOPC   PO4 5168  11.615   8.293   2.933
  432DOPC   GL1 5169  11.939   8.351   3.204
  432DOPC   GL2 5170  12.042   8.105   3.053
  432DOPC   C1A 5171  11.957   8.304   3.652
  432DOPC   D2A 5172  11.996   8.264   4.145
  432DOPC   C3A 5173  11.919   8.149   4.581
  432DOPC   C4A 5174  11.813   7.913   4.985
  432DOPC   C1B 5175  12.172   7.855   3.372
  432DOPC   D2B 5176  12.202   7.899   3.860
  432DOPC   C3B 5177  12.179   7.793   4.312
  432DOPC   C4B 5178  12.176   7.647   4.772
  433DOPC   NC3 5179   1.368   8.208   2.240
  433DOPC   PO4 5180   1.183   7.985   2.535
  433DOPC   GL1 5181   1.189   8.029   2.999
  433DOPC   GL2 5182   0.889   8.072   3.017
  433DOPC   C1A 5183   1.323   8.025   3.457
  433DOPC   D2A 5184   1.371   8.081   3.978
  433DOPC   C3A 5185   1.308   7.983   4.458
  433DOPC   C4A 5186   1.276   7.797   4.930
  433DOPC   C1B 5187   0.835   8.174   3.442
  433DOPC   D2B 5188   0.962   8.387   3.880
  433DOPC   C3B 5189   0.892   8.349   4.347
  433DOPC   C4B 5190   0.936   8.147   4.799
  434DOPC   NC3 5191  18.981   3.547   2.923
  434DOPC   PO4 5192  19.339   3.357   2.913
  434DOPC   GL1 5193  19.323   3.369   3.322
  434DOPC   GL2 5194  19.219   3.659   3.336
  434DOPC   C1A 5195  19.297   3.167   3.713
  434DOPC   D2A 5196  19.224   3.362   4.173
  434DOPC   C3A 5197  19.002   3.176   4.536
  434DOPC   C4A 5198  18.966   2.938   4.965
  434DOPC   C1B 5199  19.202   3.696   3.774
  434DOPC   D2B 5200  19.014   3.848   4.201
  434DOPC   C3B 5201  18.906   3.888   4.645
  434DOPC   C4B 5202  18.755   4.205   4.988
  435DOPC   NC3 5203   5.567   0.090   2.543
  435DOPC   PO4 5204   5.860   9.898   2.748
  435DOPC   GL1 5205   5.793   9.783   3.135
  435DOPC   GL2 5206   5.760   9.497   3.089
  435DOPC   C1A 5207   5.720   9.856   3.558
  435DOPC   D2A 5208   5.475   0.022   3.966
  435DOPC   C3A 5209   5.468   0.074   4.434
  435DOPC   C4A 5210   5.589   0.214   4.897
  435DOPC   C1B 5211   5.629   9.349   3.491
  435DOPC   D2B 5212   5.502   9.300   3.979
  435DOPC   C3B 5213   5.653   9.575   4.346
  435DOPC   C4B 5214   5.901   9.871   4.658
  436DOPC   NC3 5215  15.595   7.267   3.012
  436DOPC   PO4 5216  15.330   7.058   2.801
  436DOPC   GL1 5217  15.030   7.054   3.081
  436DOPC   GL2 5218  14.935   7.335   3.114
  436DOPC   C1A 5219  15.128   7.022   3.494
  436DOPC   D2A 5220  15.116   7.210   3.962
  436DOPC   C3A 5221  15.188   7.138   4.431
  436DOPC   C4A 5222  15.209   7.026   4.916
  436DOPC   C1B 5223  14.814   7.416   3.543
  436DOPC   D2B 5224  14.700   7.523   4.017
  436DOPC   C3B 5225  14.762   7.422   4.479
  436DOPC   C4B 5226  14.805   7.336   4.976
  437DOPC   NC3 5227  14.663   7.784   2.297
  437DOPC   PO4 5228  14.509   7.551   2.579
  437DOPC   GL1 5229  14.431   7.691   2.982
  437DOPC   GL2 5230  14.125   7.720   2.983
  437DOPC   C1A 5231  14.459   7.744   3.418
  437DOPC   D2A 5232  14.288   7.794   3.890
  437DOPC   C3A 5233  14.373   7.746   4.355
  437DOPC   C4A 5234  14.473   7.710   4.841
  437DOPC   C1B 5235  13.950   7.803   3.408
  437DOPC   D2B 5236  13.797   7.910   3.898
  437DOPC   C3B 5237  13.911   7.992   4.365
  437DOPC   C4B 5238  14.102   8.075   4.836
  438DOPC   NC3 5239  15.078   8.085   2.291
  438DOPC   PO4 5240  15.139   7.764   2.512
  438DOPC   GL1 5241  14.880   7.759   2.855
  438DOPC   GL2 5242  15.053   8.022   2.876
  438DOPC   C1A 5243  14.945   7.797   3.271
  438DOPC   D2A 5244  15.054   7.822   3.772
  438DOPC   C3A 5245  15.142   7.663   4.210
  438DOPC   C4A 5246  15.196   7.579   4.700
  438DOPC   C1B 5247  15.196   8.233   3.265
  438DOPC   D2B 5248  15.216   8.340   3.759
  438DOPC   C3B 5249  15.149   8.168   4.190
  438DOPC   C4B 5250  14.835   7.952   4.526
  439DOPC   NC3 5251   9.828   3.532   2.816
  439DOPC   PO4 5252   9.471   3.351   2.872
  439DOPC   GL1 5253   9.380   3.555   3.277
  439DOPC   GL2 5254   9.698   3.592   3.270
  439DOPC   C1A 5255   9.297   3.566   3.725
  439DOPC   D2A 5256   9.338   3.407   4.195
  439DOPC   C3A 5257   9.293   3.370   4.654
  439DOPC   C4A 5258   9.250   3.388   5.143
  439DOPC   C1B 5259   9.766   3.372   3.654
  439DOPC   D2B 5260   9.790   3.161   4.111
  439DOPC   C3B 5261   9.695   3.077   4.564
  439DOPC   C4B 5262   9.540   2.971   5.031
  440DOPC   NC3 5263   1.248   3.149   2.756
  440DOPC   PO4 5264   1.153   2.754   2.782
  440DOPC   GL1 5265   1.476   2.619   3.032
  440DOPC   GL2 5266   1.486   2.933   3.109
  440DOPC   C1A 5267   1.300   2.460   3.411
  440DOPC   D2A 5268   1.029   2.379   3.814
  440DOPC   C3A 5269   1.083   2.467   4.267
  440DOPC   C4A 5270   1.182   2.533   4.735
  440DOPC   C1B 5271   1.278   2.954   3.486
  440DOPC   D2B 5272   1.251   2.870   3.978
  440DOPC   C3B 5273   1.202   2.957   4.434
  440DOPC   C4B 5274   1.197   3.017   4.919
  441DOPC   NC3 5275  19.106   2.603   2.802
  441DOPC   PO4 5276  18.716   2.526   2.813
  441DOPC   GL1 5277  18.811   2.622   3.193
  441DOPC   GL2 5278  19.081   2.489   3.247
  441DOPC   C1A 5279  18.884   3.022   3.363
  441DOPC   D2A 5280  18.827   3.364   3.718
  441DOPC   C3A 5281  18.681   3.253   4.146
  441DOPC   C4A 5282  18.490   3.137   4.598
  441DOPC   C1B 5283  19.107   2.656   3.651
  441DOPC   D2B 5284  19.054   2.884   4.085
  441DOPC   C3B 5285  19.074   2.676   4.499
  441DOPC   C4B 5286  19.283   2.523   4.914
  442DOPC   NC3 5287  15.107   4.061   2.489
  442DOPC   PO4 5288  15.412   4.320   2.505
  442DOPC   GL1 5289  15.320   4.362   2.931
  442DOPC   GL2 5290  15.391   4.071   2.950
  442DOPC   C1A 5291  15.193   4.472   3.355
  442DOPC   D2A 5292  15.096   4.633   3.825
  442DOPC   C3A 5293  15.102   4.470   4.254
  442DOPC   C4A 5294  15.109   4.269   4.711
  442DOPC   C1B 5295  15.411   3.956   3.388
  442DOPC   D2B 5296  15.230   4.037   3.856
  442DOPC   C3B 5297  15.243   3.954   4.327
  442DOPC   C4B 5298  15.332   3.799   4.790
  443DOPC   NC3 5299   8.796   2.696   2.697
  443DOPC   PO4 5300   9.156   2.562   2.574
  443DOPC   GL1 5301   9.168   2.283   2.912
  443DOPC   GL2 5302   8.865   2.283   2.917
  443DOPC   C1A 5303   9.215   2.379   3.329
  443DOPC   D2A 5304   9.129   2.629   3.757
  443DOPC   C3A 5305   9.161   2.434   4.189
  443DOPC   C4A 5306   9.096   2.211   4.629
  443DOPC   C1B 5307   8.789   2.628   3.220
  443DOPC   D2B 5308   8.683   2.881   3.641
  443DOPC   C3B 5309   8.754   2.767   4.094
  443DOPC   C4B 5310   8.855   2.653   4.562
  444DOPC   NC3 5311   1.920   0.633   2.443
  444DOPC   PO4 5312   2.005   0.239   2.493
  444DOPC   GL1 5313   2.281   0.411   2.793
  444DOPC   GL2 5314   2.028   0.542   2.900
  444DOPC   C1A 5315   2.407   0.380   3.221
  444DOPC   D2A 5316   2.389   0.492   3.713
  444DOPC   C3A 5317   2.293   0.582   4.166
  444DOPC   C4A 5318   2.079   0.753   4.588
  444DOPC   C1B 5319   1.946   0.521   3.344
  444DOPC   D2B 5320   1.877   0.556   3.850
  444DOPC   C3B 5321   1.865   0.375   4.283
  444DOPC   C4B 5322   1.959   0.273   4.758
  445DOPC   NC3 5323   8.288   4.719   2.626
  445DOPC   PO4 5324   8.200   5.103   2.553
  445DOPC   GL1 5325   8.193   5.017   2.977
  445DOPC   GL2 5326   7.915   4.871   2.922
  445DOPC   C1A 5327   8.214   5.222   3.375
  445DOPC   D2A 5328   8.248   5.451   3.822
  445DOPC   C3A 5329   8.224   5.359   4.285
  445DOPC   C4A 5330   8.173   5.187   4.753
  445DOPC   C1B 5331   7.780   4.976   3.327
  445DOPC   D2B 5332   7.758   5.229   3.764
  445DOPC   C3B 5333   7.777   5.081   4.209
  445DOPC   C4B 5334   7.775   4.869   4.654
  446DOPC   NC3 5335   2.787   3.777   2.758
  446DOPC   PO4 5336   2.487   3.509   2.722
  446DOPC   GL1 5337   2.656   3.291   3.050
  446DOPC   GL2 5338   2.860   3.511   3.110
  446DOPC   C1A 5339   2.456   3.315   3.426
  446DOPC   D2A 5340   2.117   3.380   3.764
  446DOPC   C3A 5341   2.200   3.462   4.200
  446DOPC   C4A 5342   2.308   3.544   4.669
  446DOPC   C1B 5343   2.758   3.776   3.462
  446DOPC   D2B 5344   2.768   4.043   3.907
  446DOPC   C3B 5345   2.732   3.937   4.379
  446DOPC   C4B 5346   2.773   3.763   4.851
  447DOPC   NC3 5347  10.063   9.819   2.590
  447DOPC   PO4 5348   9.950   9.432   2.571
  447DOPC   GL1 5349  10.138   9.276   2.979
  447DOPC   GL2 5350  10.106   9.583   3.007
  447DOPC   C1A 5351  10.111   9.210   3.428
  447DOPC   D2A 5352  10.154   9.296   3.940
  447DOPC   C3A 5353   9.946   9.390   4.362
  447DOPC   C4A 5354   9.842   9.274   4.847
  447DOPC   C1B 5355   9.945   9.850   3.332
  447DOPC   D2B 5356   9.874   0.031   3.793
  447DOPC   C3B 5357   9.713   9.898   4.222
  447DOPC   C4B 5358   9.598   9.686   4.662
  448DOPC   NC3 5359   8.642   5.341   2.524
  448DOPC   PO4 5360   8.681   5.014   2.752
  448DOPC   GL1 5361   8.784   5.174   3.127
  448DOPC   GL2 5362   8.905   5.417   2.964
  448DOPC   C1A 5363   8.664   5.426   3.473
  448DOPC   D2A 5364   8.714   5.686   3.895
  448DOPC   C3A 5365   8.697   5.666   4.364
  448DOPC   C4A 5366   8.696   5.953   4.770
  448DOPC   C1B 5367   9.063   5.691   3.289
  448DOPC   D2B 5368   9.129   5.955   3.720
  448DOPC   C3B 5369   8.925   6.105   4.140
  448DOPC   C4B 5370   8.587   6.324   4.441
  449DOPC   NC3 5371  14.348   6.690   2.697
  449DOPC   PO4 5372  13.990   6.881   2.715
  449DOPC   GL1 5373  14.082   6.952   3.152
  449DOPC   GL2 5374  14.081   6.664   3.099
  449DOPC   C1A 5375  14.250   6.838   3.544
  449DOPC   D2A 5376  14.380   6.711   4.007
  449DOPC   C3A 5377  14.308   6.713   4.471
  449DOPC   C4A 5378  14.205   6.826   4.942
  449DOPC   C1B 5379  13.897   6.485   3.423
  449DOPC   D2B 5380  13.931   6.510   3.910
  449DOPC   C3B 5381  13.839   6.505   4.372
  449DOPC   C4B 5382  13.919   6.423   4.855
  450DOPC   NC3 5383   7.363   1.964   2.756
  450DOPC   PO4 5384   7.056   1.826   2.973
  450DOPC   GL1 5385   7.215   1.952   3.334
  450DOPC   GL2 5386   7.371   2.188   3.198
  450DOPC   C1A 5387   7.224   1.932   3.787
  450DOPC   D2A 5388   7.276   1.822   4.266
  450DOPC   C3A 5389   7.225   1.807   4.732
  450DOPC   C4A 5390   7.250   1.855   5.227
  450DOPC   C1B 5391   7.584   2.246   3.586
  450DOPC   D2B 5392   7.674   2.148   4.084
  450DOPC   C3B 5393   7.489   2.238   4.520
  450DOPC   C4B 5394   7.195   2.297   4.932
  451DOPC   NC3 5395  13.461   0.051   2.620
  451DOPC   PO4 5396  13.075   0.094   2.734
  451DOPC   GL1 5397  13.121   0.009   3.141
  451DOPC   GL2 5398  13.439   0.047   3.115
  451DOPC   C1A 5399  12.974   9.878   3.562
  451DOPC   D2A 5400  12.980   9.800   4.074
  451DOPC   C3A 5401  13.161   9.787   4.514
  451DOPC   C4A 5402  13.143   9.843   5.011
  451DOPC   C1B 5403  13.589   0.031   3.542
  451DOPC   D2B 5404  13.482   0.210   4.009
  451DOPC   C3B 5405  13.579   0.099   4.468
  451DOPC   C4B 5406  13.677   0.021   4.957
  452DOPC   NC3 5407  10.563   7.839   2.703
  452DOPC   PO4 5408  10.873   8.017   2.851
  452DOPC   GL1 5409  10.779   7.977   3.233
  452DOPC   GL2 5410  10.727   8.294   3.279
  452DOPC   C1A 5411  10.771   7.654   3.566
  452DOPC   D2A 5412  10.698   7.556   4.051
  452DOPC   C3A 5413  10.741   7.759   4.486
  452DOPC   C4A 5414  10.881   8.047   4.888
  452DOPC   C1B 5415  10.699   8.412   3.729
  452DOPC   D2B 5416  10.730   8.560   4.204
  452DOPC   C3B 5417  10.555   8.240   4.499
  452DOPC   C4B 5418  10.364   7.941   4.846
  453DOPC   NC3 5419  18.577   8.784   2.331
  453DOPC   PO4 5420  18.311   8.589   2.563
  453DOPC   GL1 5421  18.431   8.679   2.951
  453DOPC   GL2 5422  18.128   8.747   3.061
  453DOPC   C1A 5423  18.613   8.377   3.200
  453DOPC   D2A 5424  18.603   8.311   3.691
  453DOPC   C3A 5425  18.461   8.345   4.138
  453DOPC   C4A 5426  18.431   8.395   4.629
  453DOPC   C1B 5427  18.007   8.940   3.492
  453DOPC   D2B 5428  17.943   9.136   3.971
  453DOPC   C3B 5429  17.990   8.997   4.429
  453DOPC   C4B 5430  18.025   8.727   4.858
  454DOPC   NC3 5431  19.793   2.330   2.820
  454DOPC   PO4 5432  19.717   1.973   2.665
  454DOPC   GL1 5433  19.653   1.860   3.090
  454DOPC   GL2 5434  19.723   1.583   2.965
  454DOPC   C1A 5435  19.728   2.002   3.534
  454DOPC   D2A 5436  19.637   2.104   4.042
  454DOPC   C3A 5437  19.722   2.086   4.526
  454DOPC   C4A 5438  19.838   2.197   5.007
  454DOPC   C1B 5439  19.796   1.506   3.386
  454DOPC   D2B 5440  19.838   1.587   3.885
  454DOPC   C3B 5441   0.049   1.794   4.259
  454DOPC   C4B 5442   0.192   1.958   4.718
  455DOPC   NC3 5443   6.845   6.503   2.403
  455DOPC   PO4 5444   7.019   6.762   2.651
  455DOPC   GL1 5445   7.158   6.626   2.989
  455DOPC   GL2 5446   7.311   6.375   2.863
  455DOPC   C1A 5447   7.196   6.728   3.414
  455DOPC   D2A 5448   7.279   6.626   3.913
  455DOPC   C3A 5449   7.117   6.632   4.353
  455DOPC   C4A 5450   6.795   6.781   4.693
  455DOPC   C1B 5451   7.368   6.233   3.276
  455DOPC   D2B 5452   7.512   6.183   3.756
  455DOPC   C3B 5453   7.364   6.213   4.209
  455DOPC   C4B 5454   7.214   6.228   4.682
  456DOPC   NC3 5455  16.533   4.412   2.616
  456DOPC   PO4 5456  16.675   4.127   2.870
  456DOPC   GL1 5457  16.810   4.393   3.220
  456DOPC   GL2 5458  16.592   4.580   3.069
  456DOPC   C1A 5459  16.795   4.406   3.697
  456DOPC   D2A 5460  16.879   4.406   4.201
  456DOPC   C3A 5461  16.727   4.214   4.628
  456DOPC   C4A 5462  16.480   4.126   5.069
  456DOPC   C1B 5463  16.372   4.372   3.397
  456DOPC   D2B 5464  16.335   4.157   3.848
  456DOPC   C3B 5465  16.393   4.346   4.279
  456DOPC   C4B 5466  16.444   4.599   4.724
  457DOPC   NC3 5467   5.192   2.051   2.770
  457DOPC   PO4 5468   5.409   1.718   2.708
  457DOPC   GL1 5469   5.286   1.542   3.110
  457DOPC   GL2 5470   5.020   1.644   3.030
  457DOPC   C1A 5471   5.347   1.660   3.548
  457DOPC   D2A 5472   5.363   1.685   4.061
  457DOPC   C3A 5473   5.245   1.822   4.508
  457DOPC   C4A 5474   5.145   1.874   5.002
  457DOPC   C1B 5475   4.902   1.939   3.355
  457DOPC   D2B 5476   4.785   2.245   3.752
  457DOPC   C3B 5477   4.893   2.136   4.204
  457DOPC   C4B 5478   4.756   1.979   4.663
  458DOPC   NC3 5479  11.103   1.073   2.762
  458DOPC   PO4 5480  10.749   1.113   2.949
  458DOPC   GL1 5481  10.834   0.856   3.299
  458DOPC   GL2 5482  11.137   0.868   3.181
  458DOPC   C1A 5483  10.762   1.039   3.722
  458DOPC   D2A 5484  10.680   1.250   4.182
  458DOPC   C3A 5485  10.897   1.462   4.537
  458DOPC   C4A 5486  11.379   1.544   4.644
  458DOPC   C1B 5487  11.158   1.196   3.446
  458DOPC   D2B 5488  11.086   1.383   3.905
  458DOPC   C3B 5489  11.234   1.147   4.294
  458DOPC   C4B 5490  11.392   1.018   4.751
  459DOPC   NC3 5491  12.583   0.197   2.686
  459DOPC   PO4 5492  12.378   9.845   2.659
  459DOPC   GL1 5493  12.247   9.655   3.016
  459DOPC   GL2 5494  12.381   9.385   3.023
  459DOPC   C1A 5495  12.407   9.795   3.408
  459DOPC   D2A 5496  12.498   9.858   3.901
  459DOPC   C3A 5497  12.537   9.706   4.354
  459DOPC   C4A 5498  12.767   9.548   4.769
  459DOPC   C1B 5499  12.345   9.250   3.471
  459DOPC   D2B 5500  12.352   9.324   3.990
  459DOPC   C3B 5501  12.523   9.183   4.427
  459DOPC   C4B 5502  12.916   9.055   4.727
  460DOPC   NC3 5503   0.666   9.533   2.580
  460DOPC   PO4 5504   0.717   9.499   2.983
  460DOPC   GL1 5505   0.574   9.781   3.319
  460DOPC   GL2 5506   0.840   9.678   3.442
  460DOPC   C1A 5507   0.352   9.943   3.705
  460DOPC   D2A 5508   0.221   0.185   4.144
  460DOPC   C3A 5509   0.217   0.082   4.623
  460DOPC   C4A 5510   0.216   9.852   5.078
  460DOPC   C1B 5511   0.792   9.734   3.892
  460DOPC   D2B 5512   0.641   9.920   4.344
  460DOPC   C3B 5513   0.632   9.802   4.803
  460DOPC   C4B 5514   0.648   9.604   5.273
  461DOPC   NC3 5515  17.238   5.915   2.814
  461DOPC   PO4 5516  17.568   6.150   2.790
  461DOPC   GL1 5517  17.790   5.992   3.098
  461DOPC   GL2 5518  17.657   5.709   3.011
  461DOPC   C1A 5519  17.655   6.088   3.526
  461DOPC   D2A 5520  17.522   6.246   3.994
  461DOPC   C3A 5521  17.703   6.276   4.423
  461DOPC   C4A 5522  17.974   5.974   4.712
  461DOPC   C1B 5523  17.577   5.577   3.432
  461DOPC   D2B 5524  17.597   5.507   3.936
  461DOPC   C3B 5525  17.623   5.763   4.341
  461DOPC   C4B 5526  17.471   5.981   4.767
  462DOPC   NC3 5527   4.945   0.752   2.654
  462DOPC   PO4 5528   5.183   0.443   2.526
  462DOPC   GL1 5529   5.139   0.372   2.965
  462DOPC   GL2 5530   5.415   0.233   2.969
  462DOPC   C1A 5531   4.999   0.466   3.402
  462DOPC   D2A 5532   4.976   0.589   3.922
  462DOPC   C3A 5533   5.050   0.576   4.411
  462DOPC   C4A 5534   5.077   0.622   4.918
  462DOPC   C1B 5535   5.354   0.138   3.403
  462DOPC   D2B 5536   4.994   0.088   3.772
  462DOPC   C3B 5537   4.945   0.096   4.241
  462DOPC   C4B 5538   5.035   0.153   4.726
  463DOPC   NC3 5539  11.324   0.573   2.662
  463DOPC   PO4 5540  11.470   0.254   2.856
  463DOPC   GL1 5541  11.204   0.434   3.149
  463DOPC   GL2 5542  11.032   0.213   3.070
  463DOPC   C1A 5543  11.182   0.597   3.571
  463DOPC   D2A 5544  11.361   0.610   4.053
  463DOPC   C3A 5545  11.363   0.532   4.530
  463DOPC   C4A 5546  11.399   0.563   5.028
  463DOPC   C1B 5547  11.083   0.071   3.482
  463DOPC   D2B 5548  11.130   9.900   3.953
  463DOPC   C3B 5549  11.147   0.078   4.398
  463DOPC   C4B 5550  10.947   0.327   4.787
  464DOPC   NC3 5551  13.385   7.558   2.609
  464DOPC   PO4 5552  13.703   7.767   2.736
  464DOPC   GL1 5553  13.513   7.747   3.115
  464DOPC   GL2 5554  13.413   7.481   3.089
  464DOPC   C1A 5555  13.457   7.746   3.549
  464DOPC   D2A 5556  13.419   7.562   4.018
  464DOPC   C3A 5557  13.506   7.700   4.450
  464DOPC   C4A 5558  13.645   7.874   4.893
  464DOPC   C1B 5559  13.382   7.250   3.479
  464DOPC   D2B 5560  13.324   7.041   3.945
  464DOPC   C3B 5561  13.403   7.195   4.398
  464DOPC   C4B 5562  13.485   7.384   4.858
  465DOPC   NC3 5563   5.658   3.659   2.494
  465DOPC   PO4 5564   5.937   3.794   2.738
  465DOPC   GL1 5565   5.878   3.685   3.139
  465DOPC   GL2 5566   5.832   3.380   3.032
  465DOPC   C1A 5567   5.990   3.793   3.569
  465DOPC   D2A 5568   5.886   3.841   4.069
  465DOPC   C3A 5569   5.971   3.814   4.543
  465DOPC   C4A 5570   6.142   3.755   5.016
  465DOPC   C1B 5571   5.702   3.087   3.359
  465DOPC   D2B 5572   5.638   2.984   3.846
  465DOPC   C3B 5573   5.694   3.225   4.276
  465DOPC   C4B 5574   5.690   3.427   4.741
  466DOPC   NC3 5575  16.832   2.468   2.736
  466DOPC   PO4 5576  16.469   2.432   2.902
  466DOPC   GL1 5577  16.593   2.197   3.241
  466DOPC   GL2 5578  16.895   2.232   3.142
  466DOPC   C1A 5579  16.593   2.217   3.697
  466DOPC   D2A 5580  16.644   2.175   4.209
  466DOPC   C3A 5581  16.521   2.318   4.662
  466DOPC   C4A 5582  16.341   2.452   5.112
  466DOPC   C1B 5583  17.017   2.491   3.481
  466DOPC   D2B 5584  17.133   2.717   3.927
  466DOPC   C3B 5585  16.927   2.825   4.347
  466DOPC   C4B 5586  16.688   2.810   4.788
  467DOPC   NC3 5587   5.665   0.579   2.709
  467DOPC   PO4 5588   5.375   0.782   2.897
  467DOPC   GL1 5589   5.473   0.601   3.244
  467DOPC   GL2 5590   5.762   0.510   3.159
  467DOPC   C1A 5591   5.442   0.588   3.683
  467DOPC   D2A 5592   5.494   0.516   4.176
  467DOPC   C3A 5593   5.522   0.668   4.633
  467DOPC   C4A 5594   5.553   0.681   5.142
  467DOPC   C1B 5595   5.889   0.324   3.538
  467DOPC   D2B 5596   5.981   0.157   4.009
  467DOPC   C3B 5597   5.912   0.356   4.441
  467DOPC   C4B 5598   5.980   0.579   4.877
  468DOPC   NC3 5599   7.208   5.990   2.562
  468DOPC   PO4 5600   6.972   5.711   2.725
  468DOPC   GL1 5601   7.142   5.686   3.108
  468DOPC   GL2 5602   7.413   5.769   2.971
  468DOPC   C1A 5603   7.171   5.792   3.539
  468DOPC   D2A 5604   7.357   5.756   3.993
  468DOPC   C3A 5605   7.288   5.762   4.457
  468DOPC   C4A 5606   7.354   5.793   4.946
  468DOPC   C1B 5607   7.637   5.792   3.361
  468DOPC   D2B 5608   7.858   5.800   3.815
  468DOPC   C3B 5609   7.786   5.638   4.256
  468DOPC   C4B 5610   7.722   5.456   4.715
  469DOPC   NC3 5611   4.734   6.437   2.506
  469DOPC   PO4 5612   4.447   6.261   2.708
  469DOPC   GL1 5613   4.647   6.212   3.065
  469DOPC   GL2 5614   4.560   6.518   3.118
  469DOPC   C1A 5615   4.669   6.135   3.494
  469DOPC   D2A 5616   4.596   6.274   3.968
  469DOPC   C3A 5617   4.637   6.357   4.426
  469DOPC   C4A 5618   4.678   6.517   4.889
  469DOPC   C1B 5619   4.570   6.626   3.564
  469DOPC   D2B 5620   4.437   6.774   4.012
  469DOPC   C3B 5621   4.436   6.814   4.478
  469DOPC   C4B 5622   4.320   6.914   4.945
  470DOPC   NC3 5623  14.955   7.337   2.651
  470DOPC   PO4 5624  14.668   7.090   2.790
  470DOPC   GL1 5625  14.574   7.078   3.267
  470DOPC   GL2 5626  14.513   6.796   3.152
  470DOPC   C1A 5627  14.690   6.987   3.730
  470DOPC   D2A 5628  14.811   6.887   4.203
  470DOPC   C3A 5629  14.741   6.922   4.665
  470DOPC   C4A 5630  14.681   6.840   5.155
  470DOPC   C1B 5631  14.706   6.559   3.476
  470DOPC   D2B 5632  14.760   6.375   3.948
  470DOPC   C3B 5633  14.755   6.432   4.422
  470DOPC   C4B 5634  14.990   6.529   4.854
  471DOPC   NC3 5635   9.476   1.778   2.410
  471DOPC   PO4 5636   9.344   1.745   2.790
  471DOPC   GL1 5637   9.491   2.033   3.106
  471DOPC   GL2 5638   9.783   1.998   2.990
  471DOPC   C1A 5639   9.446   1.992   3.567
  471DOPC   D2A 5640   9.357   1.970   4.074
  471DOPC   C3A 5641   9.402   1.829   4.525
  471DOPC   C4A 5642   9.537   1.657   4.983
  471DOPC   C1B 5643  10.001   1.959   3.369
  471DOPC   D2B 5644  10.185   1.917   3.840
  471DOPC   C3B 5645   9.926   1.822   4.234
  471DOPC   C4B 5646   9.763   1.479   4.554
  472DOPC   NC3 5647  10.253   8.810   2.930
  472DOPC   PO4 5648   9.974   8.522   2.961
  472DOPC   GL1 5649  10.236   8.452   3.304
  472DOPC   GL2 5650  10.107   8.740   3.400
  472DOPC   C1A 5651  10.169   8.382   3.726
  472DOPC   D2A 5652   9.826   8.336   4.070
  472DOPC   C3A 5653   9.787   8.528   4.501
  472DOPC   C4A 5654   9.831   8.759   4.937
  472DOPC   C1B 5655   9.830   8.765   3.778
  472DOPC   D2B 5656   9.454   8.682   4.137
  472DOPC   C3B 5657   9.344   8.838   4.582
  472DOPC   C4B 5658   9.258   9.260   4.845
  473DOPC   NC3 5659  15.834   4.609   2.475
  473DOPC   PO4 5660  15.822   4.831   2.807
  473DOPC   GL1 5661  16.098   4.672   3.111
  473DOPC   GL2 5662  16.271   4.937   3.072
  473DOPC   C1A 5663  15.975   4.627   3.550
  473DOPC   D2A 5664  15.981   4.508   4.026
  473DOPC   C3A 5665  15.984   4.556   4.495
  473DOPC   C4A 5666  16.031   4.490   4.993
  473DOPC   C1B 5667  16.145   5.088   3.484
  473DOPC   D2B 5668  16.053   5.020   3.981
  473DOPC   C3B 5669  16.234   5.334   4.306
  473DOPC   C4B 5670  16.473   5.623   4.662
  474DOPC   NC3 5671  12.099   5.424   2.272
  474DOPC   PO4 5672  11.901   5.586   2.590
  474DOPC   GL1 5673  11.999   5.906   2.920
  474DOPC   GL2 5674  12.007   5.637   3.111
  474DOPC   C1A 5675  12.046   6.065   3.338
  474DOPC   D2A 5676  12.082   6.048   3.830
  474DOPC   C3A 5677  11.963   5.789   4.201
  474DOPC   C4A 5678  12.033   5.533   4.628
  474DOPC   C1B 5679  12.001   5.560   3.593
  474DOPC   D2B 5680  12.032   5.312   4.065
  474DOPC   C3B 5681  11.908   5.043   4.460
  474DOPC   C4B 5682  11.667   4.716   4.776
  475DOPC   NC3 5683  11.004   8.379   2.516
  475DOPC   PO4 5684  11.109   8.462   2.896
  475DOPC   GL1 5685  11.202   8.157   3.176
  475DOPC   GL2 5686  11.415   8.302   3.339
  475DOPC   C1A 5687  11.049   8.078   3.571
  475DOPC   D2A 5688  10.901   8.023   4.035
  475DOPC   C3A 5689  11.033   8.205   4.430
  475DOPC   C4A 5690  10.864   8.596   4.708
  475DOPC   C1B 5691  11.495   8.172   3.774
  475DOPC   D2B 5692  11.508   8.193   4.283
  475DOPC   C3B 5693  11.414   8.141   4.756
  475DOPC   C4B 5694  11.460   8.125   5.269
  476DOPC   NC3 5695  14.620   4.712   2.631
  476DOPC   PO4 5696  14.942   4.488   2.695
  476DOPC   GL1 5697  14.819   4.443   3.102
  476DOPC   GL2 5698  14.645   4.702   3.098
  476DOPC   C1A 5699  14.713   4.505   3.517
  476DOPC   D2A 5700  14.534   4.666   3.943
  476DOPC   C3A 5701  14.674   4.720   4.383
  476DOPC   C4A 5702  15.037   4.804   4.703
  476DOPC   C1B 5703  14.456   4.930   3.474
  476DOPC   D2B 5704  14.311   5.231   3.883
  476DOPC   C3B 5705  14.058   5.282   4.302
  476DOPC   C4B 5706  14.097   5.579   4.714
  477DOPC   NC3 5707   1.911   8.903   2.384
  477DOPC   PO4 5708   1.868   9.221   2.635
  477DOPC   GL1 5709   1.546   9.349   2.902
  477DOPC   GL2 5710   1.466   9.039   2.935
  477DOPC   C1A 5711   1.566   9.335   3.334
  477DOPC   D2A 5712   1.534   9.103   3.778
  477DOPC   C3A 5713   1.570   8.983   4.225
  477DOPC   C4A 5714   1.569   8.821   4.695
  477DOPC   C1B 5715   1.624   8.841   3.327
  477DOPC   D2B 5716   1.892   8.726   3.754
  477DOPC   C3B 5717   1.878   8.578   4.213
  477DOPC   C4B 5718   1.863   8.393   4.679
  478DOPC   NC3 5719  15.345   4.790   2.610
  478DOPC   PO4 5720  15.033   5.012   2.710
  478DOPC   GL1 5721  15.085   4.794   3.035
  478DOPC   GL2 5722  15.393   4.793   3.072
  478DOPC   C1A 5723  14.970   4.934   3.420
  478DOPC   D2A 5724  14.819   5.086   3.867
  478DOPC   C3A 5725  15.117   5.014   4.235
  478DOPC   C4A 5726  15.394   5.166   4.630
  478DOPC   C1B 5727  15.498   4.859   3.511
  478DOPC   D2B 5728  15.563   4.825   4.021
  478DOPC   C3B 5729  15.492   4.690   4.480
  478DOPC   C4B 5730  15.429   4.573   4.969
  479DOPC   NC3 5731   1.052   8.418   2.753
  479DOPC   PO4 5732   1.041   8.820   2.826
  479DOPC   GL1 5733   1.139   8.961   3.244
  479DOPC   GL2 5734   1.119   9.265   3.196
  479DOPC   C1A 5735   1.069   8.912   3.700
  479DOPC   D2A 5736   1.079   8.853   4.204
  479DOPC   C3A 5737   1.058   8.725   4.667
  479DOPC   C4A 5738   1.031   8.606   5.151
  479DOPC   C1B 5739   1.161   9.416   3.629
  479DOPC   D2B 5740   1.283   9.459   4.125
  479DOPC   C3B 5741   1.262   9.226   4.554
  479DOPC   C4B 5742   1.258   9.062   5.038
  480DOPC   NC3 5743   6.334   4.089   2.585
  480DOPC   PO4 5744   6.068   4.283   2.813
  480DOPC   GL1 5745   6.204   4.499   3.152
  480DOPC   GL2 5746   6.471   4.519   2.984
  480DOPC   C1A 5747   6.302   4.613   3.570
  480DOPC   D2A 5748   6.465   4.682   4.038
  480DOPC   C3A 5749   6.490   4.413   4.417
  480DOPC   C4A 5750   6.556   4.053   4.753
  480DOPC   C1B 5751   6.741   4.660   3.304
  480DOPC   D2B 5752   6.931   4.643   3.770
  480DOPC   C3B 5753   6.968   4.532   4.225
  480DOPC   C4B 5754   6.946   4.441   4.719
  481DOPC   NC3 5755  11.200   2.511   2.385
  481DOPC   PO4 5756  11.139   2.300   2.712
  481DOPC   GL1 5757  11.445   2.534   2.890
  481DOPC   GL2 5758  11.239   2.766   2.803
  481DOPC   C1A 5759  11.370   2.429   3.322
  481DOPC   D2A 5760  11.105   2.424   3.739
  481DOPC   C3A 5761  11.149   2.396   4.197
  481DOPC   C4A 5762  10.940   2.343   4.630
  481DOPC   C1B 5763  11.027   2.807   3.178
  481DOPC   D2B 5764  10.984   2.929   3.646
  481DOPC   C3B 5765  10.956   2.852   4.104
  481DOPC   C4B 5766  10.894   2.854   4.597
  482DOPC   NC3 5767   1.110   9.309   2.737
  482DOPC   PO4 5768   1.196   9.677   2.859
  482DOPC   GL1 5769   1.254   9.734   3.277
  482DOPC   GL2 5770   1.541   9.774   3.242
  482DOPC   C1A 5771   1.219   9.922   3.685
  482DOPC   D2A 5772   1.135   9.980   4.180
  482DOPC   C3A 5773   1.069   9.703   4.553
  482DOPC   C4A 5774   0.902   9.378   4.892
  482DOPC   C1B 5775   1.693   9.727   3.647
  482DOPC   D2B 5776   1.638   9.943   4.088
  482DOPC   C3B 5777   1.572   9.743   4.502
  482DOPC   C4B 5778   1.463   9.526   4.937
  483DOPC   NC3 5779  16.804   1.444   2.676
  483DOPC   PO4 5780  16.716   1.061   2.590
  483DOPC   GL1 5781  16.962   0.933   2.911
  483DOPC   GL2 5782  16.900   1.223   3.065
  483DOPC   C1A 5783  16.967   0.844   3.324
  483DOPC   D2A 5784  16.885   0.903   3.803
  483DOPC   C3A 5785  16.848   0.887   4.271
  483DOPC   C4A 5786  17.012   0.920   4.724
  483DOPC   C1B 5787  16.868   1.336   3.517
  483DOPC   D2B 5788  16.860   1.345   4.040
  483DOPC   C3B 5789  16.701   1.330   4.501
  483DOPC   C4B 5790  16.561   1.471   4.962
  484DOPC   NC3 5791  11.816   3.936   2.507
  484DOPC   PO4 5792  12.153   3.897   2.716
  484DOPC   GL1 5793  12.016   3.877   3.160
  484DOPC   GL2 5794  11.766   3.795   2.993
  484DOPC   C1A 5795  11.962   3.898   3.636
  484DOPC   D2A 5796  11.976   4.002   4.138
  484DOPC   C3A 5797  12.143   4.050   4.583
  484DOPC   C4A 5798  12.227   3.895   5.056
  484DOPC   C1B 5799  11.576   3.670   3.349
  484DOPC   D2B 5800  11.405   3.699   3.812
  484DOPC   C3B 5801  11.499   3.876   4.225
  484DOPC   C4B 5802  11.663   4.217   4.544
  485DOPC   NC3 5803  18.977   5.874   2.480
  485DOPC   PO4 5804  18.799   5.568   2.667
  485DOPC   GL1 5805  18.661   5.879   2.916
  485DOPC   GL2 5806  18.974   5.933   2.946
  485DOPC   C1A 5807  18.551   5.899   3.344
  485DOPC   D2A 5808  18.369   6.041   3.790
  485DOPC   C3A 5809  18.379   5.807   4.201
  485DOPC   C4A 5810  18.401   5.549   4.627
  485DOPC   C1B 5811  19.046   6.041   3.357
  485DOPC   D2B 5812  18.889   6.173   3.811
  485DOPC   C3B 5813  19.196   6.254   4.167
  485DOPC   C4B 5814  19.468   6.387   4.573
  486DOPC   NC3 5815   5.456   7.229   2.949
  486DOPC   PO4 5816   5.414   7.558   2.731
  486DOPC   GL1 5817   5.573   7.710   3.082
  486DOPC   GL2 5818   5.871   7.668   3.041
  486DOPC   C1A 5819   5.568   7.439   3.425
  486DOPC   D2A 5820   5.824   7.110   3.686
  486DOPC   C3A 5821   5.792   7.099   4.141
  486DOPC   C4A 5822   5.888   7.027   4.611
  486DOPC   C1B 5823   6.069   7.542   3.444
  486DOPC   D2B 5824   6.166   7.449   3.941
  486DOPC   C3B 5825   6.002   7.505   4.399
  486DOPC   C4B 5826   5.999   7.493   4.901
  487DOPC   NC3 5827   5.003   7.768   2.514
  487DOPC   PO4 5828   4.656   7.897   2.673
  487DOPC   GL1 5829   4.752   7.810   3.082
  487DOPC   GL2 5830   5.035   7.713   2.995
  487DOPC   C1A 5831   4.765   7.877   3.526
  487DOPC   D2A 5832   4.880   7.991   4.006
  487DOPC   C3A 5833   4.933   7.978   4.479
  487DOPC   C4A 5834   5.168   7.971   4.925
  487DOPC   C1B 5835   5.245   7.854   3.370
  487DOPC   D2B 5836   5.376   8.011   3.833
  487DOPC   C3B 5837   5.296   8.222   4.242
  487DOPC   C4B 5838   5.136   8.436   4.657
  488DOPC   NC3 5839   7.466   9.645   2.461
  488DOPC   PO4 5840   7.726   9.922   2.611
  488DOPC   GL1 5841   7.458   0.039   2.957
  488DOPC   GL2 5842   7.283   9.792   2.891
  488DOPC   C1A 5843   7.505   0.035   3.420
  488DOPC   D2A 5844   7.679   9.973   3.891
  488DOPC   C3A 5845   7.624   9.872   4.342
  488DOPC   C4A 5846   7.501   9.683   4.783
  488DOPC   C1B 5847   7.210   9.635   3.314
  488DOPC   D2B 5848   7.289   9.603   3.824
  488DOPC   C3B 5849   7.199   9.578   4.296
  488DOPC   C4B 5850   6.996   9.648   4.753
  489DOPC   NC3 5851   2.843   6.475   2.481
  489DOPC   PO4 5852   2.941   6.163   2.706
  489DOPC   GL1 5853   2.893   6.320   3.113
  489DOPC   GL2 5854   3.034   6.589   3.071
  489DOPC   C1A 5855   2.788   6.349   3.544
  489DOPC   D2A 5856   2.658   6.427   4.033
  489DOPC   C3A 5857   2.837   6.438   4.472
  489DOPC   C4A 5858   3.153   6.509   4.857
  489DOPC   C1B 5859   3.095   6.802   3.487
  489DOPC   D2B 5860   3.053   6.997   3.966
  489DOPC   C3B 5861   3.000   6.910   4.431
  489DOPC   C4B 5862   2.745   6.809   4.851
  490DOPC   NC3 5863  10.582   3.264   2.829
  490DOPC   PO4 5864  10.350   3.577   2.716
  490DOPC   GL1 5865  10.167   3.668   3.107
  490DOPC   GL2 5866  10.181   3.349   3.141
  490DOPC   C1A 5867  10.154   3.663   3.537
  490DOPC   D2A 5868  10.198   3.455   3.996
  490DOPC   C3A 5869  10.065   3.459   4.448
  490DOPC   C4A 5870  10.232   3.473   4.915
  490DOPC   C1B 5871  10.233   3.159   3.568
  490DOPC   D2B 5872  10.243   2.937   4.034
  490DOPC   C3B 5873  10.391   3.044   4.480
  490DOPC   C4B 5874  10.567   3.067   4.949
  491DOPC   NC3 5875  19.543   6.520   2.498
  491DOPC   PO4 5876  19.528   6.921   2.566
  491DOPC   GL1 5877  19.522   6.768   2.999
  491DOPC   GL2 5878  19.804   6.644   2.924
  491DOPC   C1A 5879  19.492   6.799   3.471
  491DOPC   D2A 5880  19.494   6.770   3.983
  491DOPC   C3A 5881  19.474   6.901   4.437
  491DOPC   C4A 5882  19.447   7.037   4.919
  491DOPC   C1B 5883  19.936   6.611   3.358
  491DOPC   D2B 5884  19.982   6.589   3.855
  491DOPC   C3B 5885  19.903   6.544   4.315
  491DOPC   C4B 5886  19.989   6.386   4.771
  492DOPC   NC3 5887  14.550   2.466   2.597
  492DOPC   PO4 5888  14.829   2.213   2.739
  492DOPC   GL1 5889  14.805   2.323   3.156
  492DOPC   GL2 5890  14.496   2.398   3.101
  492DOPC   C1A 5891  14.814   2.252   3.609
  492DOPC   D2A 5892  14.851   2.244   4.108
  492DOPC   C3A 5893  14.720   2.031   4.503
  492DOPC   C4A 5894  14.753   1.678   4.863
  492DOPC   C1B 5895  14.325   2.377   3.533
  492DOPC   D2B 5896  14.341   2.230   4.035
  492DOPC   C3B 5897  14.233   2.202   4.515
  492DOPC   C4B 5898  14.167   2.167   5.018
  493DOPC   NC3 5899  12.710   6.827   2.670
  493DOPC   PO4 5900  12.354   6.793   2.850
  493DOPC   GL1 5901  12.475   6.864   3.248
  493DOPC   GL2 5902  12.721   7.009   3.119
  493DOPC   C1A 5903  12.543   6.727   3.685
  493DOPC   D2A 5904  12.615   6.638   4.183
  493DOPC   C3A 5905  12.494   6.374   4.556
  493DOPC   C4A 5906  12.205   6.123   4.886
  493DOPC   C1B 5907  12.922   7.013   3.507
  493DOPC   D2B 5908  12.785   7.072   3.979
  493DOPC   C3B 5909  12.938   6.984   4.404
  493DOPC   C4B 5910  13.176   6.963   4.846
  494DOPC   NC3 5911   0.826   7.638   2.338
  494DOPC   PO4 5912   1.145   7.436   2.469
  494DOPC   GL1 5913   0.760   7.417   2.755
  494DOPC   GL2 5914   0.913   7.678   2.824
  494DOPC   C1A 5915   0.635   7.334   3.185
  494DOPC   D2A 5916   0.613   7.320   3.693
  494DOPC   C3A 5917   0.700   7.459   4.136
  494DOPC   C4A 5918   0.908   7.681   4.536
  494DOPC   C1B 5919   0.985   7.695   3.269
  494DOPC   D2B 5920   0.968   7.791   3.770
  494DOPC   C3B 5921   1.211   7.602   4.130
  494DOPC   C4B 5922   1.423   7.469   4.567
  495DOPC   NC3 5923  11.892   1.352   2.743
  495DOPC   PO4 5924  11.505   1.427   2.830
  495DOPC   GL1 5925  11.581   1.399   3.227
  495DOPC   GL2 5926  11.874   1.278   3.217
  495DOPC   C1A 5927  11.514   1.482   3.650
  495DOPC   D2A 5928  11.489   1.569   4.132
  495DOPC   C3A 5929  11.732   1.276   4.415
  495DOPC   C4A 5930  11.898   1.008   4.781
  495DOPC   C1B 5931  12.056   1.154   3.643
  495DOPC   D2B 5932  12.218   0.880   4.070
  495DOPC   C3B 5933  12.261   0.737   4.536
  495DOPC   C4B 5934  12.195   0.734   5.061
  496DOPC   NC3 5935  17.455   4.534   2.632
  496DOPC   PO4 5936  17.201   4.258   2.765
  496DOPC   GL1 5937  17.230   4.424   3.105
  496DOPC   GL2 5938  17.427   4.647   3.096
  496DOPC   C1A 5939  17.232   4.237   3.488
  496DOPC   D2A 5940  17.205   4.041   3.956
  496DOPC   C3A 5941  17.154   4.055   4.422
  496DOPC   C4A 5942  17.176   4.462   4.700
  496DOPC   C1B 5943  17.581   4.655   3.517
  496DOPC   D2B 5944  17.770   4.460   3.952
  496DOPC   C3B 5945  17.633   4.239   4.347
  496DOPC   C4B 5946  17.509   4.063   4.798
  497DOPC   NC3 5947   9.225   4.561   2.948
  497DOPC   PO4 5948   9.567   4.375   2.889
  497DOPC   GL1 5949   9.602   4.578   3.238
  497DOPC   GL2 5950   9.517   4.865   3.155
  497DOPC   C1A 5951   9.416   4.537   3.627
  497DOPC   D2A 5952   9.210   4.427   4.068
  497DOPC   C3A 5953   9.407   4.740   4.354
  497DOPC   C4A 5954   9.456   5.129   4.658
  497DOPC   C1B 5955   9.532   5.101   3.533
  497DOPC   D2B 5956   9.544   5.335   3.984
  497DOPC   C3B 5957   9.618   5.606   4.364
  497DOPC   C4B 5958   9.729   5.923   4.726
  498DOPC   NC3 5959   2.815   6.886   2.760
  498DOPC   PO4 5960   2.578   6.603   2.905
  498DOPC   GL1 5961   2.678   6.709   3.290
  498DOPC   GL2 5962   2.765   6.985   3.214
  498DOPC   C1A 5963   2.609   6.804   3.705
  498DOPC   D2A 5964   2.550   6.957   4.183
  498DOPC   C3A 5965   2.696   7.317   4.460
  498DOPC   C4A 5966   2.905   7.729   4.658
  498DOPC   C1B 5967   2.845   7.259   3.565
  498DOPC   D2B 5968   3.086   7.547   3.911
  498DOPC   C3B 5969   3.205   7.439   4.351
  498DOPC   C4B 5970   3.090   7.256   4.803
  499DOPC   NC3 5971  15.252   2.012   2.515
  499DOPC   PO4 5972  15.529   2.183   2.749
  499DOPC   GL1 5973  15.228   2.260   3.011
  499DOPC   GL2 5974  15.131   1.960   2.969
  499DOPC   C1A 5975  15.281   2.156   3.438
  499DOPC   D2A 5976  15.241   1.988   3.909
  499DOPC   C3A 5977  15.259   2.086   4.379
  499DOPC   C4A 5978  15.081   2.065   4.846
  499DOPC   C1B 5979  14.887   1.847   3.319
  499DOPC   D2B 5980  14.780   1.776   3.814
  499DOPC   C3B 5981  14.988   1.672   4.235
  499DOPC   C4B 5982  15.283   1.623   4.638
  500DOPC   NC3 5983  14.720   1.483   2.306
  500DOPC   PO4 5984  14.915   1.655   2.608
  500DOPC   GL1 5985  14.843   1.482   3.012
  500DOPC   GL2 5986  15.155   1.531   3.064
  500DOPC   C1A 5987  14.598   1.433   3.399
  500DOPC   D2A 5988  14.466   1.374   3.892
  500DOPC   C3A 5989  14.673   1.269   4.319
  500DOPC   C4A 5990  14.963   1.213   4.732
  500DOPC   C1B 5991  15.307   1.609   3.492
  500DOPC   D2B 5992  15.413   1.508   3.980
  500DOPC   C3B 5993  15.330   1.198   4.334
  500DOPC   C4B 5994  15.457   0.987   4.766
  501DOPC   NC3 5995   0.348   3.020   2.850
  501DOPC   PO4 5996   0.137   2.688   2.783
  501DOPC   GL1 5997   0.155   2.425   3.083
  501DOPC   GL2 5998   0.431   2.337   3.020
  501DOPC   C1A 5999   0.128   2.625   3.470
  501DOPC   D2A 6000   0.309   2.841   3.878
  501DOPC   C3A 6001   0.258   2.879   4.336
  501DOPC   C4A 6002   0.200   3.140   4.737
  501DOPC   C1B 6003   0.618   2.632   3.303
  501DOPC   D2B 6004   0.807   2.854   3.715
  501DOPC   C3B 6005   0.754   2.898   4.183
  501DOPC   C4B 6006   0.697   2.939   4.680
  502DOPC   NC3 6007   9.681   0.701   2.572
  502DOPC   PO4 6008   9.316   0.675   2.740
  502DOPC   GL1 6009   9.274   0.713   3.201
  502DOPC   GL2 6010   9.534   0.537   3.178
  502DOPC   C1A 6011   9.374   0.869   3.620
  502DOPC   D2A 6012   9.493   0.914   4.116
  502DOPC   C3A 6013   9.417   0.602   4.480
  502DOPC   C4A 6014   9.422   0.163   4.730
  502DOPC   C1B 6015   9.675   0.447   3.591
  502DOPC   D2B 6016   9.697   0.416   4.090
  502DOPC   C3B 6017   9.874   0.307   4.511
  502DOPC   C4B 6018  10.129   0.221   4.928
  503DOPC   NC3 6019   5.178   7.199   2.490
  503DOPC   PO4 6020   4.894   6.917   2.476
  503DOPC   GL1 6021   4.750   7.049   2.853
  503DOPC   GL2 6022   4.966   7.276   2.894
  503DOPC   C1A 6023   4.782   6.962   3.266
  503DOPC   D2A 6024   4.812   7.068   3.762
  503DOPC   C3A 6025   5.084   7.168   4.140
  503DOPC   C4A 6026   5.415   7.207   4.506
  503DOPC   C1B 6027   5.083   7.371   3.321
  503DOPC   D2B 6028   5.091   7.556   3.797
  503DOPC   C3B 6029   5.289   7.656   4.227
  503DOPC   C4B 6030   5.540   7.667   4.675
  504DOPC   NC3 6031   2.217   7.102   2.569
  504DOPC   PO4 6032   2.399   7.099   2.928
  504DOPC   GL1 6033   2.336   6.991   3.349
  504DOPC   GL2 6034   2.247   6.719   3.252
  504DOPC   C1A 6035   2.237   7.136   3.774
  504DOPC   D2A 6036   2.226   7.366   4.228
  504DOPC   C3A 6037   1.947   7.403   4.617
  504DOPC   C4A 6038   1.672   7.427   5.037
  504DOPC   C1B 6039   1.944   6.758   3.547
  504DOPC   D2B 6040   1.709   6.859   3.974
  504DOPC   C3B 6041   1.968   6.945   4.353
  504DOPC   C4B 6042   2.304   7.031   4.707
  505DOPC   NC3 6043   0.365   5.828   2.490
  505DOPC   PO4 6044   0.405   6.077   2.799
  505DOPC   GL1 6045   0.379   5.994   3.227
  505DOPC   GL2 6046   0.181   5.770   3.182
  505DOPC   C1A 6047   0.630   5.941   3.603
  505DOPC   D2A 6048   0.882   5.839   4.026
  505DOPC   C3A 6049   0.735   5.841   4.465
  505DOPC   C4A 6050   0.641   5.761   4.941
  505DOPC   C1B 6051   0.208   5.646   3.613
  505DOPC   D2B 6052   0.358   5.678   4.105
  505DOPC   C3B 6053   0.255   5.700   4.573
  505DOPC   C4B 6054   0.126   5.912   5.000
  506DOPC   NC3 6055  15.370   3.022   2.761
  506DOPC   PO4 6056  15.576   3.354   2.675
  506DOPC   GL1 6057  15.462   3.631   2.977
  506DOPC   GL2 6058  15.183   3.687   2.831
  506DOPC   C1A 6059  15.348   3.404   3.347
  506DOPC   D2A 6060  15.331   3.111   3.759
  506DOPC   C3A 6061  15.274   3.186   4.212
  506DOPC   C4A 6062  15.093   3.361   4.633
  506DOPC   C1B 6063  14.900   3.595   3.169
  506DOPC   D2B 6064  14.965   3.601   3.671
  506DOPC   C3B 6065  14.877   3.688   4.122
  506DOPC   C4B 6066  14.839   3.789   4.618
  507DOPC   NC3 6067  17.246   0.795   2.518
  507DOPC   PO4 6068  17.398   0.696   2.871
  507DOPC   GL1 6069  17.241   0.468   3.204
  507DOPC   GL2 6070  17.533   0.445   3.282
  507DOPC   C1A 6071  17.097   0.471   3.620
  507DOPC   D2A 6072  17.203   0.528   4.090
  507DOPC   C3A 6073  17.088   0.430   4.523
  507DOPC   C4A 6074  16.874   0.499   4.954
  507DOPC   C1B 6075  17.581   0.349   3.724
  507DOPC   D2B 6076  17.617   0.200   4.196
  507DOPC   C3B 6077  17.597   0.212   4.662
  507DOPC   C4B 6078  17.616   0.157   5.153
  508DOPC   NC3 6079  14.215   7.284   2.859
  508DOPC   PO4 6080  13.829   7.317   2.961
  508DOPC   GL1 6081  13.910   7.351   3.322
  508DOPC   GL2 6082  14.211   7.368   3.313
  508DOPC   C1A 6083  13.809   7.423   3.729
  508DOPC   D2A 6084  13.944   7.494   4.200
  508DOPC   C3A 6085  13.966   7.563   4.666
  508DOPC   C4A 6086  14.061   7.662   5.149
  508DOPC   C1B 6087  14.311   7.317   3.733
  508DOPC   D2B 6088  14.376   7.183   4.214
  508DOPC   C3B 6089  14.337   7.231   4.674
  508DOPC   C4B 6090  14.338   7.251   5.168
  509DOPC   NC3 6091  10.435   9.467   2.662
  509DOPC   PO4 6092  10.596   9.141   2.801
  509DOPC   GL1 6093  10.526   9.180   3.205
  509DOPC   GL2 6094  10.509   9.492   3.193
  509DOPC   C1A 6095  10.567   9.220   3.645
  509DOPC   D2A 6096  10.623   9.558   3.997
  509DOPC   C3A 6097  10.463   9.518   4.433
  509DOPC   C4A 6098  10.334   9.432   4.899
  509DOPC   C1B 6099  10.322   9.654   3.597
  509DOPC   D2B 6100  10.211   9.814   4.091
  509DOPC   C3B 6101  10.087   9.834   4.562
  509DOPC   C4B 6102   9.977   9.755   5.038
  510DOPC   NC3 6103   9.536   3.978   2.575
  510DOPC   PO4 6104   9.469   3.863   2.946
  510DOPC   GL1 6105   9.623   4.090   3.253
  510DOPC   GL2 6106   9.334   4.212   3.283
  510DOPC   C1A 6107   9.709   3.892   3.627
  510DOPC   D2A 6108   9.748   3.691   4.074
  510DOPC   C3A 6109   9.606   3.724   4.512
  510DOPC   C4A 6110   9.303   3.835   4.887
  510DOPC   C1B 6111   9.241   4.075   3.699
  510DOPC   D2B 6112   9.268   3.932   4.181
  510DOPC   C3B 6113   9.320   4.246   4.541
  510DOPC   C4B 6114   9.373   4.637   4.857
  511DOPC   NC3 6115   7.692   2.692   2.843
  511DOPC   PO4 6116   7.927   2.994   2.726
  511DOPC   GL1 6117   7.763   3.107   3.076
  511DOPC   GL2 6118   7.464   3.058   3.017
  511DOPC   C1A 6119   7.816   2.800   3.411
  511DOPC   D2A 6120   7.978   2.533   3.820
  511DOPC   C3A 6121   7.878   2.595   4.276
  511DOPC   C4A 6122   7.682   2.697   4.723
  511DOPC   C1B 6123   7.312   2.675   3.226
  511DOPC   D2B 6124   7.057   2.354   3.533
  511DOPC   C3B 6125   6.884   2.253   3.978
  511DOPC   C4B 6126   6.960   2.207   4.474
  512DOPC   NC3 6127   8.014   9.500   2.600
  512DOPC   PO4 6128   7.701   9.473   2.855
  512DOPC   GL1 6129   7.710   9.720   3.161
  512DOPC   GL2 6130   7.879   9.959   3.049
  512DOPC   C1A 6131   7.718   9.564   3.579
  512DOPC   D2A 6132   7.728   9.451   4.078
  512DOPC   C3A 6133   7.926   9.496   4.511
  512DOPC   C4A 6134   8.216   9.495   4.928
  512DOPC   C1B 6135   7.928   0.297   3.320
  512DOPC   D2B 6136   7.974   0.395   3.811
  512DOPC   C3B 6137   8.008   0.229   4.255
  512DOPC   C4B 6138   8.085   9.968   4.676
  513DOPC   NC3 6139   4.745   9.725   2.425
  513DOPC   PO4 6140   4.662   9.800   2.800
  513DOPC   GL1 6141   4.760   9.538   3.076
  513DOPC   GL2 6142   5.021   9.435   2.953
  513DOPC   C1A 6143   4.740   9.574   3.512
  513DOPC   D2A 6144   4.700   9.662   3.999
  513DOPC   C3A 6145   4.683   9.499   4.442
  513DOPC   C4A 6146   4.535   9.294   4.881
  513DOPC   C1B 6147   5.120   9.274   3.359
  513DOPC   D2B 6148   4.981   9.249   3.855
  513DOPC   C3B 6149   5.007   9.109   4.315
  513DOPC   C4B 6150   4.913   8.906   4.772
  514DOPC   NC3 6151   6.890   0.390   2.740
  514DOPC   PO4 6152   6.808   9.992   2.741
  514DOPC   GL1 6153   6.838   9.940   3.187
  514DOPC   GL2 6154   7.053   0.148   3.113
  514DOPC   C1A 6155   6.974   9.987   3.614
  514DOPC   D2A 6156   7.178   0.047   4.065
  514DOPC   C3A 6157   7.192   0.084   4.534
  514DOPC   C4A 6158   7.164   0.309   4.981
  514DOPC   C1B 6159   7.203   0.443   3.398
  514DOPC   D2B 6160   7.441   0.423   3.819
  514DOPC   C3B 6161   7.523   0.369   4.270
  514DOPC   C4B 6162   7.643   0.213   4.732
  515DOPC   NC3 6163   0.148   1.348   2.146
  515DOPC   PO4 6164  19.964   1.244   2.496
  515DOPC   GL1 6165   0.204   1.318   2.875
  515DOPC   GL2 6166  19.974   1.226   3.035
  515DOPC   C1A 6167   0.522   1.298   3.201
  515DOPC   D2A 6168   0.613   1.131   3.683
  515DOPC   C3A 6169   0.638   1.085   4.161
  515DOPC   C4A 6170   0.560   0.993   4.650
  515DOPC   C1B 6171   0.123   1.135   3.450
  515DOPC   D2B 6172   0.161   1.169   3.943
  515DOPC   C3B 6173   0.226   1.334   4.376
  515DOPC   C4B 6174   0.346   1.462   4.834
  516DOPC   NC3 6175   4.267   7.629   2.493
  516DOPC   PO4 6176   3.994   7.780   2.737
  516DOPC   GL1 6177   4.295   7.838   2.985
  516DOPC   GL2 6178   4.327   8.143   2.906
  516DOPC   C1A 6179   4.189   7.729   3.402
  516DOPC   D2A 6180   3.991   7.683   3.860
  516DOPC   C3A 6181   4.216   7.727   4.260
  516DOPC   C4A 6182   4.483   7.794   4.658
  516DOPC   C1B 6183   4.391   8.194   3.339
  516DOPC   D2B 6184   4.393   8.036   3.826
  516DOPC   C3B 6185   4.470   8.170   4.276
  516DOPC   C4B 6186   4.268   8.300   4.705
  517DOPC   NC3 6187   7.944   5.655   2.523
  517DOPC   PO4 6188   7.722   5.998   2.504
  517DOPC   GL1 6189   7.696   6.119   2.935
  517DOPC   GL2 6190   7.862   5.843   2.956
  517DOPC   C1A 6191   7.884   6.271   3.308
  517DOPC   D2A 6192   8.016   6.363   3.789
  517DOPC   C3A 6193   7.864   6.180   4.195
  517DOPC   C4A 6194   7.701   6.007   4.631
  517DOPC   C1B 6195   8.139   5.793   3.313
  517DOPC   D2B 6196   8.341   5.974   3.728
  517DOPC   C3B 6197   8.271   5.877   4.181
  517DOPC   C4B 6198   8.176   5.761   4.656
  518DOPC   NC3 6199  11.304   1.844   2.575
  518DOPC   PO4 6200  11.060   1.526   2.566
  518DOPC   GL1 6201  11.060   1.471   3.040
  518DOPC   GL2 6202  11.136   1.756   2.991
  518DOPC   C1A 6203  11.002   1.670   3.454
  518DOPC   D2A 6204  11.113   1.908   3.892
  518DOPC   C3A 6205  11.117   1.891   4.368
  518DOPC   C4A 6206  11.119   1.904   4.869
  518DOPC   C1B 6207  11.427   1.902   3.284
  518DOPC   D2B 6208  11.630   1.964   3.729
  518DOPC   C3B 6209  11.545   2.074   4.154
  518DOPC   C4B 6210  11.451   2.213   4.605
  519DOPC   NC3 6211  12.736   7.329   2.739
  519DOPC   PO4 6212  13.078   7.236   2.898
  519DOPC   GL1 6213  12.990   7.413   3.281
  519DOPC   GL2 6214  12.703   7.460   3.196
  519DOPC   C1A 6215  13.001   7.452   3.727
  519DOPC   D2A 6216  12.950   7.490   4.227
  519DOPC   C3A 6217  12.987   7.416   4.687
  519DOPC   C4A 6218  13.048   7.520   5.171
  519DOPC   C1B 6219  12.527   7.354   3.583
  519DOPC   D2B 6220  12.464   7.470   4.054
  519DOPC   C3B 6221  12.513   7.283   4.471
  519DOPC   C4B 6222  12.627   6.939   4.804
  520DOPC   NC3 6223   8.250   1.473   2.922
  520DOPC   PO4 6224   8.004   1.152   2.893
  520DOPC   GL1 6225   7.750   1.180   3.275
  520DOPC   GL2 6226   7.854   1.466   3.202
  520DOPC   C1A 6227   7.658   1.190   3.743
  520DOPC   D2A 6228   7.564   1.202   4.264
  520DOPC   C3A 6229   7.654   1.144   4.739
  520DOPC   C4A 6230   7.789   1.075   5.226
  520DOPC   C1B 6231   8.063   1.426   3.569
  520DOPC   D2B 6232   8.104   1.203   3.998
  520DOPC   C3B 6233   8.082   1.213   4.452
  520DOPC   C4B 6234   8.099   1.340   4.917
  521DOPC   NC3 6235  13.315   3.268   2.428
  521DOPC   PO4 6236  13.708   3.353   2.392
  521DOPC   GL1 6237  13.787   3.247   2.828
  521DOPC   GL2 6238  13.500   3.262   2.869
  521DOPC   C1A 6239  13.945   3.155   3.238
  521DOPC   D2A 6240  13.856   3.084   3.742
  521DOPC   C3A 6241  13.804   3.095   4.224
  521DOPC   C4A 6242  13.731   3.105   4.719
  521DOPC   C1B 6243  13.468   3.338   3.302
  521DOPC   D2B 6244  13.413   3.322   3.809
  521DOPC   C3B 6245  13.270   3.154   4.228
  521DOPC   C4B 6246  13.104   2.995   4.665
  522DOPC   NC3 6247   7.133   7.934   3.047
  522DOPC   PO4 6248   7.421   8.222   2.992
  522DOPC   GL1 6249   7.527   8.168   3.398
  522DOPC   GL2 6250   7.446   7.854   3.377
  522DOPC   C1A 6251   7.435   8.297   3.832
  522DOPC   D2A 6252   7.501   8.394   4.314
  522DOPC   C3A 6253   7.546   8.335   4.783
  522DOPC   C4A 6254   7.638   8.295   5.269
  522DOPC   C1B 6255   7.134   7.936   3.649
  522DOPC   D2B 6256   7.003   8.129   4.105
  522DOPC   C3B 6257   7.105   8.163   4.571
  522DOPC   C4B 6258   7.180   8.119   5.073
  523DOPC   NC3 6259   4.419   1.344   2.709
  523DOPC   PO4 6260   4.348   0.976   2.574
  523DOPC   GL1 6261   4.227   0.972   2.992
  523DOPC   GL2 6262   4.031   1.202   2.956
  523DOPC   C1A 6263   4.404   1.020   3.403
  523DOPC   D2A 6264   4.512   0.869   3.874
  523DOPC   C3A 6265   4.261   0.879   4.274
  523DOPC   C4A 6266   4.003   0.934   4.690
  523DOPC   C1B 6267   4.182   1.465   3.284
  523DOPC   D2B 6268   4.470   1.477   3.697
  523DOPC   C3B 6269   4.426   1.340   4.141
  523DOPC   C4B 6270   4.459   1.212   4.627
  524DOPC   NC3 6271  16.368   6.677   3.065
  524DOPC   PO4 6272  16.083   6.698   2.782
  524DOPC   GL1 6273  15.720   6.810   3.038
  524DOPC   GL2 6274  15.944   6.982   3.148
  524DOPC   C1A 6275  15.513   6.708   3.439
  524DOPC   D2A 6276  15.189   6.683   3.854
  524DOPC   C3A 6277  15.269   6.653   4.323
  524DOPC   C4A 6278  15.489   6.623   4.772
  524DOPC   C1B 6279  16.127   6.856   3.529
  524DOPC   D2B 6280  16.227   6.882   4.026
  524DOPC   C3B 6281  16.211   6.761   4.489
  524DOPC   C4B 6282  16.251   6.512   4.927
  525DOPC   NC3 6283   2.672   1.290   2.543
  525DOPC   PO4 6284   2.631   1.466   2.894
  525DOPC   GL1 6285   2.852   1.291   3.241
  525DOPC   GL2 6286   2.851   1.014   3.114
  525DOPC   C1A 6287   2.837   1.290   3.700
  525DOPC   D2A 6288   2.645   1.385   4.164
  525DOPC   C3A 6289   2.698   1.353   4.637
  525DOPC   C4A 6290   2.753   1.312   5.133
  525DOPC   C1B 6291   2.605   0.873   3.442
  525DOPC   D2B 6292   2.493   0.970   3.919
  525DOPC   C3B 6293   2.629   0.906   4.369
  525DOPC   C4B 6294   2.579   0.865   4.859
  526DOPC   NC3 6295   2.167   1.315   2.719
  526DOPC   PO4 6296   1.947   0.997   2.828
  526DOPC   GL1 6297   2.212   0.866   3.158
  526DOPC   GL2 6298   2.404   1.098   3.080
  526DOPC   C1A 6299   2.094   0.935   3.600
  526DOPC   D2A 6300   1.987   0.979   4.104
  526DOPC   C3A 6301   2.224   1.221   4.433
  526DOPC   C4A 6302   2.261   1.301   4.918
  526DOPC   C1B 6303   2.375   1.342   3.467
  526DOPC   D2B 6304   2.169   1.406   3.917
  526DOPC   C3B 6305   1.820   1.464   4.231
  526DOPC   C4B 6306   1.745   1.187   4.640
  527DOPC   NC3 6307   8.036   2.566   2.494
  527DOPC   PO4 6308   8.313   2.637   2.762
  527DOPC   GL1 6309   8.114   2.714   3.083
  527DOPC   GL2 6310   8.192   3.006   3.122
  527DOPC   C1A 6311   8.309   2.536   3.432
  527DOPC   D2A 6312   8.505   2.381   3.865
  527DOPC   C3A 6313   8.298   2.263   4.276
  527DOPC   C4A 6314   8.022   2.303   4.690
  527DOPC   C1B 6315   8.223   3.080   3.563
  527DOPC   D2B 6316   8.274   2.977   4.060
  527DOPC   C3B 6317   8.341   2.740   4.467
  527DOPC   C4B 6318   8.490   2.456   4.853
  528DOPC   NC3 6319  19.482   1.428   2.589
  528DOPC   PO4 6320  19.129   1.346   2.773
  528DOPC   GL1 6321  19.335   1.444   3.106
  528DOPC   GL2 6322  19.309   1.230   3.287
  528DOPC   C1A 6323  19.330   1.693   3.440
  528DOPC   D2A 6324  19.300   1.739   3.931
  528DOPC   C3A 6325  19.533   1.623   4.327
  528DOPC   C4A 6326  19.857   1.552   4.696
  528DOPC   C1B 6327  19.493   1.247   3.700
  528DOPC   D2B 6328  19.676   1.137   4.151
  528DOPC   C3B 6329  19.568   1.139   4.602
  528DOPC   C4B 6330  19.622   1.156   5.096
  529DOPC   NC3 6331  10.339   2.076   2.543
  529DOPC   PO4 6332  10.082   2.333   2.715
  529DOPC   GL1 6333  10.146   2.488   3.094
  529DOPC   GL2 6334  10.337   2.703   2.973
  529DOPC   C1A 6335  10.247   2.386   3.521
  529DOPC   D2A 6336  10.172   2.390   4.024
  529DOPC   C3A 6337  10.233   2.207   4.461
  529DOPC   C4A 6338  10.242   2.186   4.961
  529DOPC   C1B 6339  10.536   2.817   3.349
  529DOPC   D2B 6340  10.602   2.644   3.812
  529DOPC   C3B 6341  10.562   2.598   4.281
  529DOPC   C4B 6342  10.498   2.577   4.764
  530DOPC   NC3 6343   8.552   7.053   2.672
  530DOPC   PO4 6344   8.354   7.390   2.773
  530DOPC   GL1 6345   8.477   7.607   3.117
  530DOPC   GL2 6346   8.196   7.726   3.061
  530DOPC   C1A 6347   8.635   7.513   3.544
  530DOPC   D2A 6348   8.839   7.486   4.010
  530DOPC   C3A 6349   8.923   7.293   4.440
  530DOPC   C4A 6350   8.960   7.213   4.939
  530DOPC   C1B 6351   8.218   7.789   3.493
  530DOPC   D2B 6352   8.457   7.855   3.931
  530DOPC   C3B 6353   8.487   7.638   4.342
  530DOPC   C4B 6354   8.500   7.351   4.726
  531DOPC   NC3 6355  11.925   8.960   2.507
  531DOPC   PO4 6356  11.943   8.657   2.764
  531DOPC   GL1 6357  11.745   8.736   3.102
  531DOPC   GL2 6358  11.809   9.010   3.182
  531DOPC   C1A 6359  11.633   8.666   3.516
  531DOPC   D2A 6360  11.732   8.662   4.004
  531DOPC   C3A 6361  11.756   8.630   4.481
  531DOPC   C4A 6362  11.721   8.490   4.963
  531DOPC   C1B 6363  11.863   9.119   3.637
  531DOPC   D2B 6364  11.905   9.140   4.164
  531DOPC   C3B 6365  12.051   9.060   4.632
  531DOPC   C4B 6366  12.078   9.200   5.126
  532DOPC   NC3 6367   4.604   4.355   2.526
  532DOPC   PO4 6368   4.760   3.999   2.610
  532DOPC   GL1 6369   4.916   4.192   2.942
  532DOPC   GL2 6370   5.167   4.017   2.897
  532DOPC   C1A 6371   4.737   4.252   3.342
  532DOPC   D2A 6372   4.589   4.109   3.798
  532DOPC   C3A 6373   4.665   4.163   4.257
  532DOPC   C4A 6374   4.724   4.192   4.748
  532DOPC   C1B 6375   5.475   3.978   3.214
  532DOPC   D2B 6376   5.541   4.008   3.719
  532DOPC   C3B 6377   5.410   3.997   4.182
  532DOPC   C4B 6378   5.238   4.036   4.648
  533DOPC   NC3 6379  12.934   1.337   2.672
  533DOPC   PO4 6380  13.310   1.367   2.812
  533DOPC   GL1 6381  13.279   1.088   3.145
  533DOPC   GL2 6382  12.961   1.160   3.129
  533DOPC   C1A 6383  13.189   1.128   3.563
  533DOPC   D2A 6384  12.957   1.098   4.000
  533DOPC   C3A 6385  12.657   1.093   4.377
  533DOPC   C4A 6386  12.437   1.111   4.832
  533DOPC   C1B 6387  12.677   1.146   3.482
  533DOPC   D2B 6388  12.479   1.293   3.917
  533DOPC   C3B 6389  12.234   1.363   4.311
  533DOPC   C4B 6390  12.078   1.477   4.767
  534DOPC   NC3 6391  19.890   4.175   2.324
  534DOPC   PO4 6392  19.669   4.054   2.640
  534DOPC   GL1 6393  19.662   4.214   3.015
  534DOPC   GL2 6394  19.481   4.447   2.961
  534DOPC   C1A 6395  19.916   4.278   3.370
  534DOPC   D2A 6396  19.884   4.285   3.858
  534DOPC   C3A 6397  19.880   4.134   4.298
  534DOPC   C4A 6398  19.895   4.042   4.780
  534DOPC   C1B 6399  19.439   4.487   3.393
  534DOPC   D2B 6400  19.453   4.577   3.885
  534DOPC   C3B 6401  19.556   4.527   4.338
  534DOPC   C4B 6402  19.624   4.504   4.827
  535DOPC   NC3 6403  10.277   6.701   2.332
  535DOPC   PO4 6404  10.324   6.951   2.652
  535DOPC   GL1 6405  10.492   6.962   3.058
  535DOPC   GL2 6406  10.760   6.863   2.977
  535DOPC   C1A 6407  10.434   6.799   3.464
  535DOPC   D2A 6408  10.389   6.606   3.934
  535DOPC   C3A 6409  10.296   6.679   4.395
  535DOPC   C4A 6410  10.198   6.808   4.882
  535DOPC   C1B 6411  10.909   6.721   3.351
  535DOPC   D2B 6412  10.888   6.587   3.827
  535DOPC   C3B 6413  10.815   6.663   4.285
  535DOPC   C4B 6414  10.641   6.592   4.749
  536DOPC   NC3 6415   8.002   0.338   2.713
  536DOPC   PO4 6416   8.196   0.693   2.739
  536DOPC   GL1 6417   8.203   0.832   3.182
  536DOPC   GL2 6418   7.905   0.744   3.125
  536DOPC   C1A 6419   8.194   0.835   3.643
  536DOPC   D2A 6420   8.220   0.737   4.148
  536DOPC   C3A 6421   8.302   0.517   4.554
  536DOPC   C4A 6422   8.522   0.468   4.984
  536DOPC   C1B 6423   7.706   0.736   3.516
  536DOPC   D2B 6424   7.723   0.785   4.023
  536DOPC   C3B 6425   7.828   0.731   4.477
  536DOPC   C4B 6426   8.091   0.830   4.887
  537DOPC   NC3 6427   1.942   9.738   2.535
  537DOPC   PO4 6428   1.692   9.855   2.818
  537DOPC   GL1 6429   1.990   0.106   2.986
  537DOPC   GL2 6430   2.216   9.976   2.843
  537DOPC   C1A 6431   2.060   0.040   3.429
  537DOPC   D2A 6432   2.104   0.091   3.931
  537DOPC   C3A 6433   2.088   9.923   4.388
  537DOPC   C4A 6434   1.956   9.764   4.854
  537DOPC   C1B 6435   2.474   9.840   3.181
  537DOPC   D2B 6436   2.586   9.538   3.574
  537DOPC   C3B 6437   2.606   9.618   4.047
  537DOPC   C4B 6438   2.643   9.759   4.528
  538DOPC   NC3 6439   5.254   6.361   2.566
  538DOPC   PO4 6440   5.378   6.731   2.499
  538DOPC   GL1 6441   5.167   6.877   2.860
  538DOPC   GL2 6442   4.984   6.639   2.846
  538DOPC   C1A 6443   5.295   6.895   3.299
  538DOPC   D2A 6444   5.358   6.876   3.802
  538DOPC   C3A 6445   5.414   6.758   4.263
  538DOPC   C4A 6446   5.472   6.746   4.753
  538DOPC   C1B 6447   4.998   6.481   3.243
  538DOPC   D2B 6448   5.033   6.437   3.737
  538DOPC   C3B 6449   4.929   6.670   4.132
  538DOPC   C4B 6450   4.967   6.905   4.573
  539DOPC   NC3 6451  16.833   5.286   2.357
  539DOPC   PO4 6452  17.019   5.392   2.706
  539DOPC   GL1 6453  16.929   5.329   3.153
  539DOPC   GL2 6454  16.721   5.124   3.063
  539DOPC   C1A 6455  16.956   5.207   3.596
  539DOPC   D2A 6456  16.894   4.878   3.978
  539DOPC   C3A 6457  16.899   4.841   4.455
  539DOPC   C4A 6458  16.864   4.838   4.949
  539DOPC   C1B 6459  16.598   4.875   3.418
  539DOPC   D2B 6460  16.417   4.686   3.844
  539DOPC   C3B 6461  16.426   4.858   4.281
  539DOPC   C4B 6462  16.453   5.105   4.720
  540DOPC   NC3 6463   6.138   0.852   2.880
  540DOPC   PO4 6464   6.496   0.682   2.870
  540DOPC   GL1 6465   6.266   0.518   3.264
  540DOPC   GL2 6466   6.319   0.809   3.314
  540DOPC   C1A 6467   6.327   0.511   3.717
  540DOPC   D2A 6468   6.487   0.728   4.149
  540DOPC   C3A 6469   6.817   0.896   4.468
  540DOPC   C4A 6470   7.144   1.090   4.812
  540DOPC   C1B 6471   6.674   0.865   3.581
  540DOPC   D2B 6472   6.839   1.102   3.982
  540DOPC   C3B 6473   6.492   1.258   4.263
  540DOPC   C4B 6474   6.141   1.348   4.612
  541DOPC   NC3 6475   9.053   3.274   2.561
  541DOPC   PO4 6476   9.137   3.655   2.575
  541DOPC   GL1 6477   9.034   3.700   2.977
  541DOPC   GL2 6478   9.023   3.401   3.018
  541DOPC   C1A 6479   8.970   3.781   3.391
  541DOPC   D2A 6480   8.827   3.815   3.876
  541DOPC   C3A 6481   8.866   3.643   4.319
  541DOPC   C4A 6482   8.832   3.512   4.801
  541DOPC   C1B 6483   9.051   3.219   3.427
  541DOPC   D2B 6484   8.938   3.233   3.929
  541DOPC   C3B 6485   8.923   3.139   4.399
  541DOPC   C4B 6486   9.011   3.022   4.880
  542DOPC   NC3 6487   4.865   3.597   2.337
  542DOPC   PO4 6488   4.569   3.371   2.466
  542DOPC   GL1 6489   4.630   3.366   2.890
  542DOPC   GL2 6490   4.804   3.605   2.857
  542DOPC   C1A 6491   4.715   3.248   3.301
  542DOPC   D2A 6492   4.736   3.187   3.787
  542DOPC   C3A 6493   4.776   3.303   4.231
  542DOPC   C4A 6494   4.746   3.258   4.717
  542DOPC   C1B 6495   4.765   3.754   3.251
  542DOPC   D2B 6496   4.502   3.621   3.660
  542DOPC   C3B 6497   4.455   3.709   4.120
  542DOPC   C4B 6498   4.350   3.847   4.576
  543DOPC   NC3 6499   9.673   2.511   2.449
  543DOPC   PO4 6500   9.541   2.206   2.651
  543DOPC   GL1 6501   9.688   2.437   2.960
  543DOPC   GL2 6502   9.488   2.654   2.915
  543DOPC   C1A 6503   9.729   2.399   3.393
  543DOPC   D2A 6504   9.593   2.424   3.880
  543DOPC   C3A 6505   9.673   2.291   4.328
  543DOPC   C4A 6506   9.800   2.052   4.741
  543DOPC   C1B 6507   9.440   2.843   3.332
  543DOPC   D2B 6508   9.396   3.056   3.788
  543DOPC   C3B 6509   9.343   2.896   4.227
  543DOPC   C4B 6510   9.377   2.646   4.661
  544DOPC   NC3 6511  13.989   0.551   2.502
  544DOPC   PO4 6512  14.160   0.860   2.680
  544DOPC   GL1 6513  14.013   0.734   3.069
  544DOPC   GL2 6514  14.309   0.683   3.132
  544DOPC   C1A 6515  13.928   0.712   3.498
  544DOPC   D2A 6516  13.798   0.615   3.979
  544DOPC   C3A 6517  13.783   0.573   4.439
  544DOPC   C4A 6518  13.977   0.452   4.871
  544DOPC   C1B 6519  14.429   0.501   3.505
  544DOPC   D2B 6520  14.320   0.538   3.998
  544DOPC   C3B 6521  14.304   0.472   4.457
  544DOPC   C4B 6522  14.532   0.393   4.886
  545DOPC   NC3 6523   2.890   5.302   2.546
  545DOPC   PO4 6524   3.225   5.367   2.749
  545DOPC   GL1 6525   3.013   5.460   3.083
  545DOPC   GL2 6526   2.900   5.723   2.936
  545DOPC   C1A 6527   3.006   5.488   3.527
  545DOPC   D2A 6528   2.918   5.587   4.012
  545DOPC   C3A 6529   3.013   5.630   4.483
  545DOPC   C4A 6530   3.007   5.603   4.987
  545DOPC   C1B 6531   2.750   5.900   3.319
  545DOPC   D2B 6532   2.587   5.953   3.808
  545DOPC   C3B 6533   2.699   5.982   4.278
  545DOPC   C4B 6534   2.828   6.023   4.766
  546DOPC   NC3 6535   6.418   0.260   2.586
  546DOPC   PO4 6536   6.111   0.344   2.837
  546DOPC   GL1 6537   6.525   0.247   3.035
  546DOPC   GL2 6538   6.405   9.988   3.032
  546DOPC   C1A 6539   6.706   0.365   3.411
  546DOPC   D2A 6540   6.917   0.467   3.857
  546DOPC   C3A 6541   6.829   0.396   4.315
  546DOPC   C4A 6542   6.486   0.552   4.658
  546DOPC   C1B 6543   6.340   0.012   3.473
  546DOPC   D2B 6544   6.523   0.091   3.941
  546DOPC   C3B 6545   6.363   0.141   4.390
  546DOPC   C4B 6546   6.249   0.141   4.885
  547DOPC   NC3 6547  12.620   6.267   2.621
  547DOPC   PO4 6548  12.229   6.290   2.699
  547DOPC   GL1 6549  12.417   6.313   3.106
  547DOPC   GL2 6550  12.646   6.491   3.022
  547DOPC   C1A 6551  12.501   6.231   3.551
  547DOPC   D2A 6552  12.543   6.146   4.042
  547DOPC   C3A 6553  12.408   5.904   4.422
  547DOPC   C4A 6554  12.464   5.682   4.855
  547DOPC   C1B 6555  12.892   6.535   3.374
  547DOPC   D2B 6556  13.004   6.611   3.861
  547DOPC   C3B 6557  12.988   6.310   4.236
  547DOPC   C4B 6558  12.954   6.019   4.646
  548DOPC   NC3 6559  17.346   2.450   2.657
  548DOPC   PO4 6560  17.165   2.092   2.725
  548DOPC   GL1 6561  17.359   1.885   3.056
  548DOPC   GL2 6562  17.560   2.113   3.062
  548DOPC   C1A 6563  17.198   1.991   3.466
  548DOPC   D2A 6564  17.071   2.199   3.887
  548DOPC   C3A 6565  17.158   2.348   4.299
  548DOPC   C4A 6566  17.153   2.559   4.738
  548DOPC   C1B 6567  17.523   2.366   3.454
  548DOPC   D2B 6568  17.619   2.506   3.947
  548DOPC   C3B 6569  17.497   2.728   4.361
  548DOPC   C4B 6570  17.273   3.074   4.657
  549DOPC   NC3 6571   3.602   7.031   2.642
  549DOPC   PO4 6572   3.911   7.281   2.591
  549DOPC   GL1 6573   3.851   7.450   3.027
  549DOPC   GL2 6574   3.777   7.147   3.062
  549DOPC   C1A 6575   3.715   7.519   3.451
  549DOPC   D2A 6576   3.578   7.346   3.909
  549DOPC   C3A 6577   3.867   7.343   4.275
  549DOPC   C4A 6578   4.124   7.405   4.701
  549DOPC   C1B 6579   3.678   7.001   3.480
  549DOPC   D2B 6580   3.522   6.810   3.917
  549DOPC   C3B 6581   3.494   7.006   4.354
  549DOPC   C4B 6582   3.596   7.360   4.702
  550DOPC   NC3 6583  14.497   0.032   2.737
  550DOPC   PO4 6584  14.255   0.325   2.860
  550DOPC   GL1 6585  14.043   0.323   3.248
  550DOPC   GL2 6586  13.933   0.053   3.174
  550DOPC   C1A 6587  14.024   0.257   3.686
  550DOPC   D2A 6588  13.998   0.148   4.165
  550DOPC   C3A 6589  14.090   0.044   4.609
  550DOPC   C4A 6590  14.205   0.050   5.096
  550DOPC   C1B 6591  14.162   9.819   3.489
  550DOPC   D2B 6592  14.359   9.651   3.932
  550DOPC   C3B 6593  14.251   9.604   4.393
  550DOPC   C4B 6594  14.061   9.604   4.861
  551DOPC   NC3 6595  17.470   7.384   2.468
  551DOPC   PO4 6596  17.641   7.570   2.767
  551DOPC   GL1 6597  17.419   7.378   3.038
  551DOPC   GL2 6598  17.346   7.103   2.924
  551DOPC   C1A 6599  17.428   7.402   3.479
  551DOPC   D2A 6600  17.319   7.477   3.972
  551DOPC   C3A 6601  17.427   7.559   4.417
  551DOPC   C4A 6602  17.870   7.607   4.633
  551DOPC   C1B 6603  17.163   6.974   3.337
  551DOPC   D2B 6604  17.032   7.093   3.824
  551DOPC   C3B 6605  17.187   7.088   4.291
  551DOPC   C4B 6606  17.437   7.183   4.730
  552DOPC   NC3 6607   5.255   4.763   2.426
  552DOPC   PO4 6608   5.124   4.403   2.554
  552DOPC   GL1 6609   5.292   4.466   2.944
  552DOPC   GL2 6610   5.355   4.771   2.892
  552DOPC   C1A 6611   5.243   4.387   3.386
  552DOPC   D2A 6612   5.090   4.243   3.856
  552DOPC   C3A 6613   5.142   4.433   4.299
  552DOPC   C4A 6614   5.228   4.775   4.667
  552DOPC   C1B 6615   5.461   5.019   3.258
  552DOPC   D2B 6616   5.609   5.150   3.737
  552DOPC   C3B 6617   5.494   5.239   4.203
  552DOPC   C4B 6618   5.248   5.349   4.635
  553DOPC   NC3 6619  17.381   9.944   2.271
  553DOPC   PO4 6620  17.136   9.748   2.527
  553DOPC   GL1 6621  17.056   9.873   2.926
  553DOPC   GL2 6622  17.241   0.063   3.023
  553DOPC   C1A 6623  16.963   9.682   3.309
  553DOPC   D2A 6624  16.902   9.575   3.796
  553DOPC   C3A 6625  16.932   9.586   4.254
  553DOPC   C4A 6626  16.951   9.587   4.755
  553DOPC   C1B 6627  17.289   0.034   3.466
  553DOPC   D2B 6628  17.240   9.940   3.972
  553DOPC   C3B 6629  17.353   9.813   4.429
  553DOPC   C4B 6630  17.454   9.646   4.892
  554DOPC   NC3 6631  12.681   8.629   2.693
  554DOPC   PO4 6632  12.405   8.917   2.792
  554DOPC   GL1 6633  12.310   8.577   3.044
  554DOPC   GL2 6634  12.600   8.564   3.149
  554DOPC   C1A 6635  12.132   8.732   3.395
  554DOPC   D2A 6636  12.207   8.842   3.852
  554DOPC   C3A 6637  12.215   8.721   4.277
  554DOPC   C4A 6638  12.201   8.575   4.730
  554DOPC   C1B 6639  12.631   8.736   3.566
  554DOPC   D2B 6640  12.676   8.856   4.056
  554DOPC   C3B 6641  12.678   8.671   4.490
  554DOPC   C4B 6642  12.870   8.269   4.696
  555DOPC   NC3 6643  16.112   1.623   2.187
  555DOPC   PO4 6644  16.272   1.849   2.477
  555DOPC   GL1 6645  16.469   1.735   2.849
  555DOPC   GL2 6646  16.659   1.965   2.857
  555DOPC   C1A 6647  16.395   1.524   3.251
  555DOPC   D2A 6648  16.414   1.443   3.756
  555DOPC   C3A 6649  16.500   1.669   4.171
  555DOPC   C4A 6650  16.675   1.834   4.611
  555DOPC   C1B 6651  16.810   1.788   3.248
  555DOPC   D2B 6652  16.822   1.772   3.768
  555DOPC   C3B 6653  17.023   1.810   4.215
  555DOPC   C4B 6654  17.207   1.996   4.653
  556DOPC   NC3 6655  15.417   9.631   2.635
  556DOPC   PO4 6656  15.695   9.911   2.595
  556DOPC   GL1 6657  15.730   0.029   2.975
  556DOPC   GL2 6658  16.002   9.880   3.032
  556DOPC   C1A 6659  15.460   0.053   3.333
  556DOPC   D2A 6660  15.456   0.151   3.820
  556DOPC   C3A 6661  15.439   9.945   4.234
  556DOPC   C4A 6662  15.427   9.795   4.691
  556DOPC   C1B 6663  15.976   9.870   3.481
  556DOPC   D2B 6664  15.900   9.914   3.975
  556DOPC   C3B 6665  15.918   9.776   4.425
  556DOPC   C4B 6666  15.898   9.733   4.924
  557DOPC   NC3 6667  11.868   6.056   2.402
  557DOPC   PO4 6668  11.678   6.361   2.569
  557DOPC   GL1 6669  11.721   6.377   3.011
  557DOPC   GL2 6670  11.985   6.519   3.010
  557DOPC   C1A 6671  11.664   6.373   3.457
  557DOPC   D2A 6672  11.662   6.354   3.960
  557DOPC   C3A 6673  11.513   6.328   4.403
  557DOPC   C4A 6674  11.432   6.284   4.895
  557DOPC   C1B 6675  12.131   6.547   3.434
  557DOPC   D2B 6676  12.163   6.525   3.949
  557DOPC   C3B 6677  12.029   6.290   4.338
  557DOPC   C4B 6678  11.787   5.978   4.653
  558DOPC   NC3 6679   0.975   0.783   2.336
  558DOPC   PO4 6680   1.055   0.606   2.696
  558DOPC   GL1 6681   1.309   0.601   3.085
  558DOPC   GL2 6682   1.059   0.752   3.183
  558DOPC   C1A 6683   1.527   0.770   3.443
  558DOPC   D2A 6684   1.498   0.912   3.924
  558DOPC   C3A 6685   1.554   0.769   4.374
  558DOPC   C4A 6686   1.574   0.598   4.845
  558DOPC   C1B 6687   1.086   1.053   3.511
  558DOPC   D2B 6688   1.011   1.466   3.805
  558DOPC   C3B 6689   0.982   1.493   4.272
  558DOPC   C4B 6690   0.850   1.435   4.744
  559DOPC   NC3 6691   3.793   4.256   2.889
  559DOPC   PO4 6692   3.498   4.505   2.765
  559DOPC   GL1 6693   3.311   4.526   3.154
  559DOPC   GL2 6694   3.415   4.241   3.160
  559DOPC   C1A 6695   3.411   4.541   3.589
  559DOPC   D2A 6696   3.729   4.358   3.938
  559DOPC   C3A 6697   3.676   4.356   4.403
  559DOPC   C4A 6698   3.579   4.377   4.884
  559DOPC   C1B 6699   3.637   4.073   3.507
  559DOPC   D2B 6700   3.646   3.794   3.930
  559DOPC   C3B 6701   3.497   3.878   4.366
  559DOPC   C4B 6702   3.299   3.929   4.822
  560DOPC   NC3 6703   1.644   8.137   2.663
  560DOPC   PO4 6704   1.520   8.522   2.599
  560DOPC   GL1 6705   1.387   8.596   3.024
  560DOPC   GL2 6706   1.503   8.336   3.064
  560DOPC   C1A 6707   1.230   8.526   3.431
  560DOPC   D2A 6708   1.428   8.587   3.895
  560DOPC   C3A 6709   1.401   8.469   4.353
  560DOPC   C4A 6710   1.388   8.340   4.839
  560DOPC   C1B 6711   1.713   8.344   3.448
  560DOPC   D2B 6712   1.884   8.199   3.883
  560DOPC   C3B 6713   1.792   8.040   4.312
  560DOPC   C4B 6714   1.752   7.880   4.779
  561DOPC   NC3 6715   3.604   0.470   2.444
  561DOPC   PO4 6716   3.244   0.361   2.584
  561DOPC   GL1 6717   3.440   0.223   2.962
  561DOPC   GL2 6718   3.587   0.504   2.948
  561DOPC   C1A 6719   3.362   0.232   3.403
  561DOPC   D2A 6720   3.420   0.446   3.860
  561DOPC   C3A 6721   3.400   0.250   4.294
  561DOPC   C4A 6722   3.389   0.119   4.784
  561DOPC   C1B 6723   3.574   0.675   3.378
  561DOPC   D2B 6724   3.633   0.915   3.822
  561DOPC   C3B 6725   3.541   0.842   4.281
  561DOPC   C4B 6726   3.516   0.782   4.775
  562DOPC   NC3 6727   0.490   4.954   2.528
  562DOPC   PO4 6728   0.458   4.636   2.770
  562DOPC   GL1 6729   0.568   4.877   3.084
  562DOPC   GL2 6730   0.538   5.144   2.955
  562DOPC   C1A 6731   0.452   4.989   3.495
  562DOPC   D2A 6732   0.494   5.001   3.990
  562DOPC   C3A 6733   0.534   4.835   4.424
  562DOPC   C4A 6734   0.433   4.844   4.909
  562DOPC   C1B 6735   0.621   5.425   3.287
  562DOPC   D2B 6736   0.680   5.447   3.779
  562DOPC   C3B 6737   0.729   5.367   4.245
  562DOPC   C4B 6738   0.680   5.296   4.724
  563DOPC   NC3 6739  13.260   8.024   2.809
  563DOPC   PO4 6740  13.016   7.742   2.958
  563DOPC   GL1 6741  13.036   7.851   3.385
  563DOPC   GL2 6742  13.233   8.054   3.275
  563DOPC   C1A 6743  13.085   7.911   3.852
  563DOPC   D2A 6744  13.082   7.963   4.349
  563DOPC   C3A 6745  13.166   7.876   4.805
  563DOPC   C4A 6746  13.258   7.970   5.295
  563DOPC   C1B 6747  13.255   8.312   3.620
  563DOPC   D2B 6748  13.433   8.220   4.083
  563DOPC   C3B 6749  13.461   8.233   4.552
  563DOPC   C4B 6750  13.457   8.352   5.030
  564DOPC   NC3 6751   6.755   9.114   2.822
  564DOPC   PO4 6752   6.396   8.938   2.750
  564DOPC   GL1 6753   6.482   8.779   3.114
  564DOPC   GL2 6754   6.750   8.696   3.059
  564DOPC   C1A 6755   6.436   9.117   3.402
  564DOPC   D2A 6756   6.368   9.327   3.856
  564DOPC   C3A 6757   6.547   9.333   4.300
  564DOPC   C4A 6758   6.678   9.242   4.769
  564DOPC   C1B 6759   6.867   8.870   3.456
  564DOPC   D2B 6760   6.802   9.038   3.934
  564DOPC   C3B 6761   6.736   8.866   4.381
  564DOPC   C4B 6762   6.762   8.522   4.736
  565DOPC   NC3 6763   1.353   6.954   2.466
  565DOPC   PO4 6764   1.486   6.632   2.686
  565DOPC   GL1 6765   1.665   6.533   3.063
  565DOPC   GL2 6766   1.613   6.224   3.011
  565DOPC   C1A 6767   1.460   6.665   3.447
  565DOPC   D2A 6768   1.218   6.732   3.883
  565DOPC   C3A 6769   1.338   6.671   4.334
  565DOPC   C4A 6770   1.273   6.763   4.819
  565DOPC   C1B 6771   1.297   6.195   3.353
  565DOPC   D2B 6772   1.041   6.263   3.792
  565DOPC   C3B 6773   1.006   6.269   4.276
  565DOPC   C4B 6774   1.009   6.157   4.766
  566DOPC   NC3 6775  11.926   2.629   2.411
  566DOPC   PO4 6776  11.583   2.799   2.497
  566DOPC   GL1 6777  11.645   2.947   2.920
  566DOPC   GL2 6778  11.865   2.703   2.898
  566DOPC   C1A 6779  11.506   2.920   3.364
  566DOPC   D2A 6780  11.427   2.812   3.880
  566DOPC   C3A 6781  11.383   2.891   4.368
  566DOPC   C4A 6782  11.313   2.916   4.869
  566DOPC   C1B 6783  11.876   2.523   3.306
  566DOPC   D2B 6784  11.746   2.440   3.786
  566DOPC   C3B 6785  11.720   2.533   4.251
  566DOPC   C4B 6786  11.710   2.625   4.749
  567DOPC   NC3 6787   5.557   4.148   2.684
  567DOPC   PO4 6788   5.657   4.534   2.624
  567DOPC   GL1 6789   5.788   4.670   3.034
  567DOPC   GL2 6790   5.698   4.382   3.083
  567DOPC   C1A 6791   5.818   4.747   3.479
  567DOPC   D2A 6792   5.935   4.789   3.982
  567DOPC   C3A 6793   5.721   4.714   4.412
  567DOPC   C4A 6794   5.611   4.480   4.848
  567DOPC   C1B 6795   5.892   4.260   3.440
  567DOPC   D2B 6796   6.100   4.274   3.887
  567DOPC   C3B 6797   6.001   4.292   4.340
  567DOPC   C4B 6798   6.077   4.249   4.825
  568DOPC   NC3 6799   3.803   8.865   2.540
  568DOPC   PO4 6800   4.031   9.164   2.685
  568DOPC   GL1 6801   3.978   9.046   3.077
  568DOPC   GL2 6802   3.820   8.786   3.004
  568DOPC   C1A 6803   3.971   9.084   3.517
  568DOPC   D2A 6804   3.966   9.078   4.024
  568DOPC   C3A 6805   3.857   8.906   4.460
  568DOPC   C4A 6806   3.950   8.655   4.890
  568DOPC   C1B 6807   3.766   8.562   3.384
  568DOPC   D2B 6808   3.606   8.405   3.836
  568DOPC   C3B 6809   3.438   8.521   4.255
  568DOPC   C4B 6810   3.480   8.692   4.721
  569DOPC   NC3 6811   5.734   5.042   2.742
  569DOPC   PO4 6812   5.677   5.442   2.793
  569DOPC   GL1 6813   5.799   5.445   3.205
  569DOPC   GL2 6814   5.911   5.155   3.205
  569DOPC   C1A 6815   5.867   5.573   3.627
  569DOPC   D2A 6816   6.070   5.615   4.084
  569DOPC   C3A 6817   5.946   5.331   4.443
  569DOPC   C4A 6818   5.649   5.083   4.765
  569DOPC   C1B 6819   6.108   5.128   3.616
  569DOPC   D2B 6820   6.318   5.164   4.077
  569DOPC   C3B 6821   6.213   4.886   4.448
  569DOPC   C4B 6822   6.031   4.786   4.896
  570DOPC   NC3 6823  16.111   9.647   2.495
  570DOPC   PO4 6824  16.265   9.978   2.633
  570DOPC   GL1 6825  16.458   0.040   2.960
  570DOPC   GL2 6826  16.604   9.805   3.046
  570DOPC   C1A 6827  16.335   0.189   3.316
  570DOPC   D2A 6828  16.328   0.191   3.804
  570DOPC   C3A 6829  16.242   0.159   4.265
  570DOPC   C4A 6830  16.006   0.188   4.700
  570DOPC   C1B 6831  16.495   9.737   3.497
  570DOPC   D2B 6832  16.416   9.731   3.994
  570DOPC   C3B 6833  16.464   9.702   4.456
  570DOPC   C4B 6834  16.468   9.696   4.950
  571DOPC   NC3 6835  17.573   1.313   2.507
  571DOPC   PO4 6836  17.282   1.234   2.767
  571DOPC   GL1 6837  17.340   1.079   3.167
  571DOPC   GL2 6838  17.624   0.991   3.152
  571DOPC   C1A 6839  17.299   1.103   3.615
  571DOPC   D2A 6840  17.280   1.064   4.110
  571DOPC   C3A 6841  17.204   1.332   4.485
  571DOPC   C4A 6842  17.062   1.579   4.897
  571DOPC   C1B 6843  17.690   0.815   3.588
  571DOPC   D2B 6844  17.681   0.716   4.094
  571DOPC   C3B 6845  17.505   0.857   4.522
  571DOPC   C4B 6846  17.424   1.146   4.926
  572DOPC   NC3 6847  12.070   1.435   2.275
  572DOPC   PO4 6848  11.938   1.773   2.461
  572DOPC   GL1 6849  12.088   1.787   2.831
  572DOPC   GL2 6850  11.813   1.762   2.970
  572DOPC   C1A 6851  12.277   1.968   3.171
  572DOPC   D2A 6852  12.139   2.144   3.618
  572DOPC   C3A 6853  12.053   2.139   4.078
  572DOPC   C4A 6854  11.993   2.225   4.564
  572DOPC   C1B 6855  11.897   1.702   3.404
  572DOPC   D2B 6856  11.968   1.612   3.912
  572DOPC   C3B 6857  11.881   1.755   4.371
  572DOPC   C4B 6858  11.748   1.864   4.840
  573DOPC   NC3 6859  17.916   9.940   2.559
  573DOPC   PO4 6860  17.567   9.882   2.750
  573DOPC   GL1 6861  17.423   9.675   3.143
  573DOPC   GL2 6862  17.721   9.593   3.150
  573DOPC   C1A 6863  17.378   9.558   3.578
  573DOPC   D2A 6864  17.416   9.447   4.058
  573DOPC   C3A 6865  17.620   9.346   4.477
  573DOPC   C4A 6866  17.872   9.234   4.893
  573DOPC   C1B 6867  17.941   9.460   3.529
  573DOPC   D2B 6868  18.349   9.384   3.839
  573DOPC   C3B 6869  18.336   9.359   4.317
  573DOPC   C4B 6870  18.345   9.454   4.812
  574DOPC   NC3 6871  18.051   4.621   2.626
  574DOPC   PO4 6872  17.806   4.829   2.866
  574DOPC   GL1 6873  17.893   4.576   3.188
  574DOPC   GL2 6874  18.097   4.394   3.043
  574DOPC   C1A 6875  18.085   4.652   3.586
  574DOPC   D2A 6876  18.291   4.581   4.033
  574DOPC   C3A 6877  18.037   4.575   4.420
  574DOPC   C4A 6878  17.686   4.578   4.767
  574DOPC   C1B 6879  18.460   4.396   3.336
  574DOPC   D2B 6880  18.643   4.288   3.809
  574DOPC   C3B 6881  18.602   4.173   4.274
  574DOPC   C4B 6882  18.354   4.060   4.689
  575DOPC   NC3 6883   8.767   3.994   2.548
  575DOPC   PO4 6884   9.077   4.141   2.742
  575DOPC   GL1 6885   8.915   4.215   3.124
  575DOPC   GL2 6886   8.703   3.986   3.054
  575DOPC   C1A 6887   8.882   4.421   3.535
  575DOPC   D2A 6888   8.803   4.701   3.976
  575DOPC   C3A 6889   8.894   4.625   4.445
  575DOPC   C4A 6890   8.897   4.467   4.921
  575DOPC   C1B 6891   8.537   4.028   3.462
  575DOPC   D2B 6892   8.483   4.351   3.849
  575DOPC   C3B 6893   8.712   4.191   4.230
  575DOPC   C4B 6894   8.877   4.017   4.663
  576DOPC   NC3 6895   8.147   2.157   2.792
  576DOPC   PO4 6896   7.780   2.218   2.932
  576DOPC   GL1 6897   7.956   2.085   3.298
  576DOPC   GL2 6898   8.076   1.852   3.142
  576DOPC   C1A 6899   7.976   1.930   3.717
  576DOPC   D2A 6900   7.793   1.630   4.080
  576DOPC   C3A 6901   7.716   1.751   4.537
  576DOPC   C4A 6902   7.673   2.033   4.959
  576DOPC   C1B 6903   8.385   1.768   3.424
  576DOPC   D2B 6904   8.482   1.860   3.899
  576DOPC   C3B 6905   8.320   1.734   4.327
  576DOPC   C4B 6906   8.150   1.819   4.792
  577DOPC   NC3 6907  11.834   0.531   2.615
  577DOPC   PO4 6908  11.957   0.865   2.805
  577DOPC   GL1 6909  11.578   0.988   3.019
  577DOPC   GL2 6910  11.551   0.689   3.041
  577DOPC   C1A 6911  11.604   0.993   3.467
  577DOPC   D2A 6912  11.657   1.046   3.967
  577DOPC   C3A 6913  11.773   0.768   4.345
  577DOPC   C4A 6914  11.856   0.457   4.743
  577DOPC   C1B 6915  11.670   0.496   3.429
  577DOPC   D2B 6916  11.864   0.548   3.885
  577DOPC   C3B 6917  12.032   0.318   4.261
  577DOPC   C4B 6918  12.171  -0.000   4.611
  578DOPC   NC3 6919   6.029   5.650   2.502
  578DOPC   PO4 6920   6.274   5.915   2.671
  578DOPC   GL1 6921   6.123   5.862   3.062
  578DOPC   GL2 6922   5.844   5.847   2.966
  578DOPC   C1A 6923   6.166   5.957   3.501
  578DOPC   D2A 6924   5.980   6.109   3.954
  578DOPC   C3A 6925   6.021   6.077   4.430
  578DOPC   C4A 6926   6.049   6.074   4.931
  578DOPC   C1B 6927   5.670   5.956   3.369
  578DOPC   D2B 6928   5.498   5.880   3.847
  578DOPC   C3B 6929   5.639   5.764   4.292
  578DOPC   C4B 6930   5.760   5.672   4.769
  579DOPC   NC3 6931  12.967   0.557   2.563
  579DOPC   PO4 6932  13.045   0.856   2.804
  579DOPC   GL1 6933  13.045   0.696   3.212
  579DOPC   GL2 6934  12.906   0.428   3.076
  579DOPC   C1A 6935  12.895   0.712   3.643
  579DOPC   D2A 6936  12.720   0.666   4.118
  579DOPC   C3A 6937  12.787   0.630   4.584
  579DOPC   C4A 6938  12.713   0.733   5.059
  579DOPC   C1B 6939  12.663   0.291   3.435
  579DOPC   D2B 6940  12.394   0.359   3.867
  579DOPC   C3B 6941  12.548   0.224   4.301
  579DOPC   C4B 6942  12.787   0.062   4.705
  580DOPC   NC3 6943  19.272   1.821   2.831
  580DOPC   PO4 6944  19.335   2.192   2.964
  580DOPC   GL1 6945  19.082   2.029   3.226
  580DOPC   GL2 6946  18.844   2.155   3.080
  580DOPC   C1A 6947  19.230   2.162   3.633
  580DOPC   D2A 6948  19.112   2.330   4.087
  580DOPC   C3A 6949  19.229   2.188   4.519
  580DOPC   C4A 6950  19.348   2.020   4.976
  580DOPC   C1B 6951  18.756   2.282   3.495
  580DOPC   D2B 6952  18.596   2.327   3.971
  580DOPC   C3B 6953  18.723   2.269   4.427
  580DOPC   C4B 6954  18.852   2.201   4.907
  581DOPC   NC3 6955   8.291   3.942   2.790
  581DOPC   PO4 6956   8.063   4.270   2.693
  581DOPC   GL1 6957   8.123   4.510   3.054
  581DOPC   GL2 6958   8.195   4.234   3.182
  581DOPC   C1A 6959   8.185   4.675   3.463
  581DOPC   D2A 6960   8.266   4.875   3.928
  581DOPC   C3A 6961   8.368   4.607   4.311
  581DOPC   C4A 6962   8.457   4.310   4.705
  581DOPC   C1B 6963   8.086   4.165   3.622
  581DOPC   D2B 6964   8.304   3.915   4.018
  581DOPC   C3B 6965   8.380   3.836   4.478
  581DOPC   C4B 6966   8.118   3.940   4.889
  582DOPC   NC3 6967  10.641   1.590   2.844
  582DOPC   PO4 6968  10.774   1.952   2.745
  582DOPC   GL1 6969  10.556   2.295   2.921
  582DOPC   GL2 6970  10.352   2.078   3.022
  582DOPC   C1A 6971  10.741   2.349   3.320
  582DOPC   D2A 6972  10.661   2.149   3.767
  582DOPC   C3A 6973  10.692   2.116   4.219
  582DOPC   C4A 6974  10.650   1.923   4.673
  582DOPC   C1B 6975  10.510   1.855   3.383
  582DOPC   D2B 6976  10.634   1.640   3.834
  582DOPC   C3B 6977  10.429   1.689   4.264
  582DOPC   C4B 6978  10.187   1.726   4.702
  583DOPC   NC3 6979  16.074   2.805   2.725
  583DOPC   PO4 6980  15.716   2.698   2.562
  583DOPC   GL1 6981  15.517   2.623   2.970
  583DOPC   GL2 6982  15.712   2.866   3.040
  583DOPC   C1A 6983  15.548   2.576   3.420
  583DOPC   D2A 6984  15.534   2.399   3.899
  583DOPC   C3A 6985  15.521   2.552   4.351
  583DOPC   C4A 6986  15.330   2.905   4.639
  583DOPC   C1B 6987  15.739   3.057   3.459
  583DOPC   D2B 6988  15.800   3.214   3.957
  583DOPC   C3B 6989  15.780   3.076   4.426
  583DOPC   C4B 6990  15.777   2.857   4.891
  584DOPC   NC3 6991   8.117   8.621   2.859
  584DOPC   PO4 6992   8.419   8.869   2.944
  584DOPC   GL1 6993   8.403   8.964   3.385
  584DOPC   GL2 6994   8.149   8.769   3.374
  584DOPC   C1A 6995   8.569   9.045   3.822
  584DOPC   D2A 6996   8.643   8.933   4.329
  584DOPC   C3A 6997   8.829   8.930   4.781
  584DOPC   C4A 6998   8.990   9.069   5.242
  584DOPC   C1B 6999   8.163   8.757   3.822
  584DOPC   D2B 7000   8.212   8.665   4.318
  584DOPC   C3B 7001   8.459   8.559   4.711
  584DOPC   C4B 7002   8.611   8.519   5.187
  585DOPC   NC3 7003   4.408   7.098   2.515
  585DOPC   PO4 7004   4.689   7.384   2.531
  585DOPC   GL1 7005   4.545   7.475   2.892
  585DOPC   GL2 7006   4.271   7.367   2.892
  585DOPC   C1A 7007   4.596   7.444   3.327
  585DOPC   D2A 7008   4.517   7.524   3.822
  585DOPC   C3A 7009   4.749   7.555   4.239
  585DOPC   C4A 7010   5.034   7.516   4.650
  585DOPC   C1B 7011   4.151   7.219   3.314
  585DOPC   D2B 7012   4.097   7.177   3.816
  585DOPC   C3B 7013   4.352   7.233   4.221
  585DOPC   C4B 7014   4.600   7.268   4.663
  586DOPC   NC3 7015  17.225   0.285   2.629
  586DOPC   PO4 7016  17.607   0.357   2.528
  586DOPC   GL1 7017  17.791   0.309   2.921
  586DOPC   GL2 7018  17.871   0.628   2.926
  586DOPC   C1A 7019  17.789   0.064   3.320
  586DOPC   D2A 7020  17.716   9.858   3.778
  586DOPC   C3A 7021  17.840   9.722   4.206
  586DOPC   C4A 7022  17.916   9.734   4.694
  586DOPC   C1B 7023  18.059   0.883   3.271
  586DOPC   D2B 7024  18.174   1.163   3.692
  586DOPC   C3B 7025  18.213   1.161   4.171
  586DOPC   C4B 7026  18.177   0.929   4.628
  587DOPC   NC3 7027  10.973   3.941   2.165
  587DOPC   PO4 7028  10.861   4.126   2.513
  587DOPC   GL1 7029  10.711   3.900   2.883
  587DOPC   GL2 7030  11.026   3.900   2.961
  587DOPC   C1A 7031  10.573   3.829   3.291
  587DOPC   D2A 7032  10.595   3.702   3.777
  587DOPC   C3A 7033  10.657   3.754   4.245
  587DOPC   C4A 7034  10.790   3.782   4.730
  587DOPC   C1B 7035  11.065   3.834   3.426
  587DOPC   D2B 7036  11.000   3.974   3.929
  587DOPC   C3B 7037  11.076   4.083   4.400
  587DOPC   C4B 7038  11.243   4.278   4.843
  588DOPC   NC3 7039  18.443   3.699   2.715
  588DOPC   PO4 7040  18.758   3.945   2.684
  588DOPC   GL1 7041  18.770   4.018   3.095
  588DOPC   GL2 7042  18.450   3.984   3.123
  588DOPC   C1A 7043  18.796   3.872   3.507
  588DOPC   D2A 7044  18.577   3.765   3.950
  588DOPC   C3A 7045  18.509   3.653   4.411
  588DOPC   C4A 7046  18.282   3.539   4.848
  588DOPC   C1B 7047  18.274   3.995   3.570
  588DOPC   D2B 7048  18.154   4.074   4.069
  588DOPC   C3B 7049  17.995   3.776   4.422
  588DOPC   C4B 7050  17.794   3.376   4.678
  589DOPC   NC3 7051   8.176   6.817   2.286
  589DOPC   PO4 7052   8.013   6.989   2.620
  589DOPC   GL1 7053   8.064   7.137   3.049
  589DOPC   GL2 7054   8.321   6.980   3.066
  589DOPC   C1A 7055   8.174   7.287   3.442
  589DOPC   D2A 7056   8.254   7.373   3.939
  589DOPC   C3A 7057   8.439   7.101   4.294
  589DOPC   C4A 7058   8.723   6.856   4.640
  589DOPC   C1B 7059   8.575   6.983   3.464
  589DOPC   D2B 7060   8.783   6.957   3.937
  589DOPC   C3B 7061   8.970   6.642   4.259
  589DOPC   C4B 7062   9.042   6.364   4.680
  590DOPC   NC3 7063   6.213   7.122   2.618
  590DOPC   PO4 7064   6.512   6.867   2.539
  590DOPC   GL1 7065   6.578   6.555   2.822
  590DOPC   GL2 7066   6.252   6.556   2.859
  590DOPC   C1A 7067   6.710   6.572   3.252
  590DOPC   D2A 7068   6.807   6.658   3.738
  590DOPC   C3A 7069   6.674   6.773   4.167
  590DOPC   C4A 7070   6.327   6.743   4.514
  590DOPC   C1B 7071   6.200   6.420   3.274
  590DOPC   D2B 7072   6.399   6.361   3.731
  590DOPC   C3B 7073   6.396   6.348   4.200
  590DOPC   C4B 7074   6.463   6.257   4.681
  591DOPC   NC3 7075  18.267   7.618   2.538
  591DOPC   PO4 7076  18.572   7.447   2.747
  591DOPC   GL1 7077  18.437   7.588   3.137
  591DOPC   GL2 7078  18.146   7.584   3.010
  591DOPC   C1A 7079  18.388   7.474   3.572
  591DOPC   D2A 7080  18.194   7.522   4.030
  591DOPC   C3A 7081  18.264   7.323   4.441
  591DOPC   C4A 7082  18.439   7.035   4.782
  591DOPC   C1B 7083  17.933   7.394   3.352
  591DOPC   D2B 7084  17.773   7.285   3.823
  591DOPC   C3B 7085  17.786   7.215   4.288
  591DOPC   C4B 7086  17.917   7.069   4.744
  592DOPC   NC3 7087   8.480   7.921   2.727
  592DOPC   PO4 7088   8.517   8.327   2.756
  592DOPC   GL1 7089   8.405   8.433   3.173
  592DOPC   GL2 7090   8.373   8.117   3.175
  592DOPC   C1A 7091   8.615   8.583   3.550
  592DOPC   D2A 7092   8.893   8.646   3.974
  592DOPC   C3A 7093   8.896   8.463   4.414
  592DOPC   C4A 7094   8.873   8.213   4.847
  592DOPC   C1B 7095   8.657   8.060   3.509
  592DOPC   D2B 7096   8.916   8.114   3.940
  592DOPC   C3B 7097   8.933   7.925   4.365
  592DOPC   C4B 7098   8.925   7.696   4.791
  593DOPC   NC3 7099  10.530   0.741   2.686
  593DOPC   PO4 7100  10.874   0.620   2.872
  593DOPC   GL1 7101  10.712   0.427   3.278
  593DOPC   GL2 7102  10.477   0.589   3.154
  593DOPC   C1A 7103  10.666   0.545   3.717
  593DOPC   D2A 7104  10.471   0.796   4.126
  593DOPC   C3A 7105  10.539   0.946   4.595
  593DOPC   C4A 7106  10.482   1.009   5.110
  593DOPC   C1B 7107  10.351   0.877   3.468
  593DOPC   D2B 7108  10.283   1.223   3.837
  593DOPC   C3B 7109  10.176   1.245   4.297
  593DOPC   C4B 7110  10.145   1.226   4.787
  594DOPC   NC3 7111  10.696   7.259   2.757
  594DOPC   PO4 7112  10.967   7.539   2.697
  594DOPC   GL1 7113  10.877   7.576   3.080
  594DOPC   GL2 7114  10.576   7.587   3.100
  594DOPC   C1A 7115  10.843   7.221   3.321
  594DOPC   D2A 7116  10.709   7.064   3.789
  594DOPC   C3A 7117  10.556   7.109   4.231
  594DOPC   C4A 7118  10.439   7.305   4.677
  594DOPC   C1B 7119  10.375   7.301   3.412
  594DOPC   D2B 7120  10.196   7.075   3.836
  594DOPC   C3B 7121  10.058   7.123   4.284
  594DOPC   C4B 7122   9.938   7.222   4.744
  595DOPC   NC3 7123   5.048   3.233   2.693
  595DOPC   PO4 7124   5.224   3.595   2.696
  595DOPC   GL1 7125   5.408   3.503   3.054
  595DOPC   GL2 7126   5.129   3.394   3.155
  595DOPC   C1A 7127   5.555   3.548   3.463
  595DOPC   D2A 7128   5.477   3.540   3.947
  595DOPC   C3A 7129   5.284   3.518   4.377
  595DOPC   C4A 7130   5.179   3.555   4.859
  595DOPC   C1B 7131   5.064   3.524   3.594
  595DOPC   D2B 7132   4.964   3.756   4.031
  595DOPC   C3B 7133   4.838   3.735   4.496
  595DOPC   C4B 7134   4.656   3.697   4.965
  596DOPC   NC3 7135  15.993   3.613   2.597
  596DOPC   PO4 7136  16.268   3.358   2.729
  596DOPC   GL1 7137  16.247   3.670   3.065
  596DOPC   GL2 7138  15.936   3.579   3.075
  596DOPC   C1A 7139  16.318   3.734   3.518
  596DOPC   D2A 7140  16.285   3.658   4.024
  596DOPC   C3A 7141  16.064   3.588   4.445
  596DOPC   C4A 7142  15.840   3.745   4.857
  596DOPC   C1B 7143  15.788   3.572   3.511
  596DOPC   D2B 7144  15.475   3.603   3.914
  596DOPC   C3B 7145  15.561   3.560   4.383
  596DOPC   C4B 7146  15.557   3.329   4.824
  597DOPC   NC3 7147   7.623   4.092   2.518
  597DOPC   PO4 7148   7.807   3.792   2.706
  597DOPC   GL1 7149   7.885   3.962   3.035
  597DOPC   GL2 7150   7.714   4.213   2.995
  597DOPC   C1A 7151   7.761   3.849   3.420
  597DOPC   D2A 7152   7.748   3.896   3.921
  597DOPC   C3A 7153   7.919   4.080   4.323
  597DOPC   C4A 7154   7.948   4.382   4.711
  597DOPC   C1B 7155   7.743   4.455   3.360
  597DOPC   D2B 7156   7.792   4.685   3.808
  597DOPC   C3B 7157   7.678   4.553   4.254
  597DOPC   C4B 7158   7.451   4.419   4.685
  598DOPC   NC3 7159  16.456   0.447   2.699
  598DOPC   PO4 7160  16.804   0.564   2.553
  598DOPC   GL1 7161  16.891   0.491   2.939
  598DOPC   GL2 7162  16.642   0.661   3.063
  598DOPC   C1A 7163  16.846   0.188   3.245
  598DOPC   D2A 7164  16.810   0.062   3.733
  598DOPC   C3A 7165  16.778   0.064   4.219
  598DOPC   C4A 7166  16.689   0.086   4.713
  598DOPC   C1B 7167  16.594   0.564   3.513
  598DOPC   D2B 7168  16.683   0.492   3.998
  598DOPC   C3B 7169  16.565   0.513   4.453
  598DOPC   C4B 7170  16.372   0.488   4.898
  599DOPC   NC3 7171  10.641   8.736   2.504
  599DOPC   PO4 7172  11.013   8.880   2.559
  599DOPC   GL1 7173  10.955   8.901   2.973
  599DOPC   GL2 7174  10.721   8.713   2.977
  599DOPC   C1A 7175  10.953   9.065   3.385
  599DOPC   D2A 7176  10.903   8.927   3.878
  599DOPC   C3A 7177  10.571   9.065   4.200
  599DOPC   C4A 7178  10.217   9.014   4.556
  599DOPC   C1B 7179  10.567   8.752   3.387
  599DOPC   D2B 7180  10.354   8.814   3.837
  599DOPC   C3B 7181  10.236   8.597   4.249
  599DOPC   C4B 7182  10.239   8.518   4.753
  600DOPC   NC3 7183  19.250   8.937   2.293
  600DOPC   PO4 7184  19.011   8.812   2.600
  600DOPC   GL1 7185  18.891   8.726   3.033
  600DOPC   GL2 7186  19.067   8.478   2.998
  600DOPC   C1A 7187  18.853   8.713   3.496
  600DOPC   D2A 7188  18.851   8.643   4.010
  600DOPC   C3A 7189  18.884   8.799   4.467
  600DOPC   C4A 7190  18.958   8.997   4.937
  600DOPC   C1B 7191  19.061   8.222   3.350
  600DOPC   D2B 7192  19.024   8.028   3.799
  600DOPC   C3B 7193  19.037   8.191   4.232
  600DOPC   C4B 7194  19.005   8.368   4.698
  601DOPC   NC3 7195   5.892   8.870   2.649
  601DOPC   PO4 7196   5.946   8.491   2.780
  601DOPC   GL1 7197   6.116   8.541   3.162
  601DOPC   GL2 7198   6.054   8.863   3.112
  601DOPC   C1A 7199   5.919   8.439   3.555
  601DOPC   D2A 7200   5.719   8.390   4.013
  601DOPC   C3A 7201   5.606   8.618   4.425
  601DOPC   C4A 7202   5.465   8.747   4.897
  601DOPC   C1B 7203   5.994   8.945   3.549
  601DOPC   D2B 7204   6.134   8.714   3.976
  601DOPC   C3B 7205   6.171   8.939   4.386
  601DOPC   C4B 7206   6.145   9.310   4.718
  602DOPC   NC3 7207   0.460   3.571   2.650
  602DOPC   PO4 7208   0.151   3.835   2.627
  602DOPC   GL1 7209   0.011   3.890   3.038
  602DOPC   GL2 7210   0.309   3.781   3.083
  602DOPC   C1A 7211   0.011   3.805   3.475
  602DOPC   D2A 7212   0.094   3.784   3.973
  602DOPC   C3A 7213   0.246   3.821   4.433
  602DOPC   C4A 7214   0.410   4.034   4.871
  602DOPC   C1B 7215   0.436   3.545   3.459
  602DOPC   D2B 7216   0.554   3.298   3.881
  602DOPC   C3B 7217   0.500   3.356   4.342
  602DOPC   C4B 7218   0.504   3.541   4.802
  603DOPC   NC3 7219  17.422   6.637   2.678
  603DOPC   PO4 7220  17.140   6.431   2.859
  603DOPC   GL1 7221  17.314   6.209   3.192
  603DOPC   GL2 7222  17.559   6.407   3.173
  603DOPC   C1A 7223  17.223   6.370   3.583
  603DOPC   D2A 7224  17.211   6.642   4.002
  603DOPC   C3A 7225  17.180   6.411   4.411
  603DOPC   C4A 7226  17.095   6.290   4.885
  603DOPC   C1B 7227  17.667   6.621   3.553
  603DOPC   D2B 7228  17.704   6.781   4.030
  603DOPC   C3B 7229  17.547   6.763   4.474
  603DOPC   C4B 7230  17.150   6.783   4.791
  604DOPC   NC3 7231  19.468   7.956   2.380
  604DOPC   PO4 7232  19.667   8.010   2.713
  604DOPC   GL1 7233  19.425   8.139   3.050
  604DOPC   GL2 7234  19.522   8.416   3.024
  604DOPC   C1A 7235  19.518   8.046   3.484
  604DOPC   D2A 7236  19.534   8.047   3.986
  604DOPC   C3A 7237  19.653   7.762   4.325
  604DOPC   C4A 7238  19.865   7.392   4.561
  604DOPC   C1B 7239  19.816   8.452   3.374
  604DOPC   D2B 7240   0.008   8.511   3.847
  604DOPC   C3B 7241  19.799   8.406   4.262
  604DOPC   C4B 7242  19.467   8.198   4.572
  605DOPC   NC3 7243   4.279   4.956   2.542
  605DOPC   PO4 7244   4.154   4.583   2.611
  605DOPC   GL1 7245   3.891   4.714   2.906
  605DOPC   GL2 7246   3.981   4.996   2.907
  605DOPC   C1A 7247   3.835   4.624   3.324
  605DOPC   D2A 7248   3.765   4.860   3.766
  605DOPC   C3A 7249   3.716   4.840   4.241
  605DOPC   C4A 7250   3.714   4.854   4.745
  605DOPC   C1B 7251   3.928   5.166   3.318
  605DOPC   D2B 7252   3.902   5.562   3.636
  605DOPC   C3B 7253   3.938   5.734   4.068
  605DOPC   C4B 7254   4.197   5.934   4.442
  606DOPC   NC3 7255   2.894   0.833   2.685
  606DOPC   PO4 7256   2.741   0.470   2.674
  606DOPC   GL1 7257   2.996   0.301   2.978
  606DOPC   GL2 7258   3.134   0.576   3.022
  606DOPC   C1A 7259   2.854   0.160   3.365
  606DOPC   D2A 7260   2.580   0.025   3.750
  606DOPC   C3A 7261   2.540   0.147   4.204
  606DOPC   C4A 7262   2.472   0.396   4.633
  606DOPC   C1B 7263   3.070   0.665   3.465
  606DOPC   D2B 7264   3.053   0.828   3.956
  606DOPC   C3B 7265   3.083   0.665   4.417
  606DOPC   C4B 7266   3.088   0.524   4.902
  607DOPC   NC3 7267   6.528   5.484   2.746
  607DOPC   PO4 7268   6.178   5.407   2.914
  607DOPC   GL1 7269   6.239   5.490   3.308
  607DOPC   GL2 7270   6.489   5.667   3.201
  607DOPC   C1A 7271   6.401   5.533   3.697
  607DOPC   D2A 7272   6.486   5.913   3.984
  607DOPC   C3A 7273   6.437   5.794   4.426
  607DOPC   C4A 7274   6.322   5.626   4.865
  607DOPC   C1B 7275   6.684   5.941   3.500
  607DOPC   D2B 7276   6.952   6.161   3.870
  607DOPC   C3B 7277   6.872   6.052   4.323
  607DOPC   C4B 7278   6.846   5.846   4.780
  608DOPC   NC3 7279  18.755   6.960   2.617
  608DOPC   PO4 7280  19.076   6.783   2.771
  608DOPC   GL1 7281  19.291   7.148   2.916
  608DOPC   GL2 7282  18.986   7.259   2.934
  608DOPC   C1A 7283  19.350   7.252   3.316
  608DOPC   D2A 7284  19.164   7.110   3.747
  608DOPC   C3A 7285  19.064   7.119   4.200
  608DOPC   C4A 7286  18.945   7.081   4.686
  608DOPC   C1B 7287  18.860   7.384   3.344
  608DOPC   D2B 7288  18.832   7.512   3.816
  608DOPC   C3B 7289  18.710   7.470   4.259
  608DOPC   C4B 7290  18.675   7.518   4.748
  609DOPC   NC3 7291  13.731   2.592   2.377
  609DOPC   PO4 7292  13.585   2.882   2.602
  609DOPC   GL1 7293  13.676   2.854   3.021
  609DOPC   GL2 7294  13.367   2.896   3.072
  609DOPC   C1A 7295  13.888   2.677   3.393
  609DOPC   D2A 7296  14.034   2.616   3.881
  609DOPC   C3A 7297  14.015   2.644   4.353
  609DOPC   C4A 7298  13.986   2.647   4.854
  609DOPC   C1B 7299  13.428   2.879   3.508
  609DOPC   D2B 7300  13.531   2.749   3.982
  609DOPC   C3B 7301  13.503   2.729   4.457
  609DOPC   C4B 7302  13.467   2.710   4.960
  610DOPC   NC3 7303   3.055   8.489   2.515
  610DOPC   PO4 7304   3.444   8.518   2.611
  610DOPC   GL1 7305   3.481   8.439   3.044
  610DOPC   GL2 7306   3.249   8.241   2.971
  610DOPC   C1A 7307   3.285   8.477   3.454
  610DOPC   D2A 7308   3.124   8.250   3.878
  610DOPC   C3A 7309   3.209   7.998   4.280
  610DOPC   C4A 7310   3.407   7.829   4.716
  610DOPC   C1B 7311   2.996   8.086   3.319
  610DOPC   D2B 7312   2.759   7.919   3.737
  610DOPC   C3B 7313   2.687   7.782   4.189
  610DOPC   C4B 7314   2.379   7.704   4.584
  611DOPC   NC3 7315   0.377   7.895   2.382
  611DOPC   PO4 7316   0.673   8.027   2.613
  611DOPC   GL1 7317   0.474   7.787   2.880
  611DOPC   GL2 7318   0.180   7.881   2.805
  611DOPC   C1A 7319   0.498   7.812   3.315
  611DOPC   D2A 7320   0.461   7.796   3.811
  611DOPC   C3A 7321   0.596   7.952   4.230
  611DOPC   C4A 7322   0.458   8.069   4.692
  611DOPC   C1B 7323   0.036   7.969   3.212
  611DOPC   D2B 7324   0.006   8.029   3.700
  611DOPC   C3B 7325   0.081   7.974   4.158
  611DOPC   C4B 7326  19.958   8.069   4.637
  612DOPC   NC3 7327   8.818   4.553   2.641
  612DOPC   PO4 7328   8.548   4.378   2.873
  612DOPC   GL1 7329   8.527   4.741   3.130
  612DOPC   GL2 7330   8.829   4.728   3.097
  612DOPC   C1A 7331   8.605   4.924   3.536
  612DOPC   D2A 7332   8.685   5.190   3.958
  612DOPC   C3A 7333   8.623   5.070   4.410
  612DOPC   C4A 7334   8.642   4.963   4.894
  612DOPC   C1B 7335   9.086   4.863   3.441
  612DOPC   D2B 7336   9.252   4.923   3.907
  612DOPC   C3B 7337   9.110   5.167   4.271
  612DOPC   C4B 7338   8.955   5.368   4.693
  613DOPC   NC3 7339  16.259   9.201   2.662
  613DOPC   PO4 7340  16.274   9.494   2.943
  613DOPC   GL1 7341  16.104   9.446   3.332
  613DOPC   GL2 7342  16.378   9.296   3.406
  613DOPC   C1A 7343  16.031   9.454   3.765
  613DOPC   D2A 7344  16.139   9.346   4.239
  613DOPC   C3A 7345  16.187   9.347   4.707
  613DOPC   C4A 7346  16.155   9.372   5.205
  613DOPC   C1B 7347  16.506   9.249   3.854
  613DOPC   D2B 7348  16.634   9.183   4.353
  613DOPC   C3B 7349  16.850   8.913   4.701
  613DOPC   C4B 7350  17.006   8.868   5.179
  614DOPC   NC3 7351  17.615   2.080   2.453
  614DOPC   PO4 7352  17.714   1.772   2.684
  614DOPC   GL1 7353  17.802   1.694   3.071
  614DOPC   GL2 7354  17.614   1.443   3.024
  614DOPC   C1A 7355  17.683   1.863   3.452
  614DOPC   D2A 7356  17.549   2.012   3.901
  614DOPC   C3A 7357  17.660   2.144   4.342
  614DOPC   C4A 7358  17.810   2.385   4.747
  614DOPC   C1B 7359  17.311   1.521   3.336
  614DOPC   D2B 7360  17.294   1.565   3.832
  614DOPC   C3B 7361  17.520   1.637   4.238
  614DOPC   C4B 7362  17.560   1.628   4.731
  615DOPC   NC3 7363   3.613   3.780   2.666
  615DOPC   PO4 7364   3.319   3.589   2.879
  615DOPC   GL1 7365   3.384   3.808   3.194
  615DOPC   GL2 7366   3.699   3.816   3.127
  615DOPC   C1A 7367   3.259   3.708   3.599
  615DOPC   D2A 7368   3.108   3.698   4.081
  615DOPC   C3A 7369   3.142   3.544   4.527
  615DOPC   C4A 7370   3.177   3.374   4.987
  615DOPC   C1B 7371   3.927   3.618   3.458
  615DOPC   D2B 7372   4.064   3.474   3.925
  615DOPC   C3B 7373   3.881   3.533   4.375
  615DOPC   C4B 7374   3.657   3.514   4.831
  616DOPC   NC3 7375  10.435   6.269   2.578
  616DOPC   PO4 7376  10.826   6.259   2.646
  616DOPC   GL1 7377  10.796   6.422   3.021
  616DOPC   GL2 7378  10.491   6.514   2.977
  616DOPC   C1A 7379  10.780   6.239   3.435
  616DOPC   D2A 7380  10.610   6.139   3.897
  616DOPC   C3A 7381  10.569   6.211   4.362
  616DOPC   C4A 7382  10.606   6.081   4.842
  616DOPC   C1B 7383  10.284   6.335   3.341
  616DOPC   D2B 7384  10.073   6.193   3.782
  616DOPC   C3B 7385  10.059   6.206   4.251
  616DOPC   C4B 7386  10.086   6.319   4.729
  617DOPC   NC3 7387  14.564   3.234   2.502
  617DOPC   PO4 7388  14.267   3.455   2.360
  617DOPC   GL1 7389  14.123   3.515   2.753
  617DOPC   GL2 7390  14.253   3.251   2.869
  617DOPC   C1A 7391  14.304   3.743   3.089
  617DOPC   D2A 7392  14.487   3.839   3.550
  617DOPC   C3A 7393  14.380   3.857   4.018
  617DOPC   C4A 7394  14.343   3.877   4.522
  617DOPC   C1B 7395  14.457   3.295   3.278
  617DOPC   D2B 7396  14.480   3.401   3.785
  617DOPC   C3B 7397  14.487   3.425   4.281
  617DOPC   C4B 7398  14.587   3.371   4.773
  618DOPC   NC3 7399  12.214   9.387   2.569
  618DOPC   PO4 7400  11.953   9.305   2.862
  618DOPC   GL1 7401  11.911   9.455   3.274
  618DOPC   GL2 7402  11.809   9.729   3.177
  618DOPC   C1A 7403  12.027   9.598   3.683
  618DOPC   D2A 7404  12.043   9.791   4.141
  618DOPC   C3A 7405  11.938   9.534   4.515
  618DOPC   C4A 7406  11.653   9.283   4.854
  618DOPC   C1B 7407  11.699   9.977   3.550
  618DOPC   D2B 7408  11.600   0.113   4.030
  618DOPC   C3B 7409  11.667   9.973   4.478
  618DOPC   C4B 7410  11.772   9.775   4.934
  619DOPC   NC3 7411   3.736   8.134   2.515
  619DOPC   PO4 7412   3.929   8.388   2.755
  619DOPC   GL1 7413   3.937   8.131   3.119
  619DOPC   GL2 7414   3.671   8.028   2.987
  619DOPC   C1A 7415   3.947   8.132   3.583
  619DOPC   D2A 7416   3.984   8.181   4.087
  619DOPC   C3A 7417   3.804   8.305   4.505
  619DOPC   C4A 7418   3.648   8.243   4.972
  619DOPC   C1B 7419   3.501   8.010   3.384
  619DOPC   D2B 7420   3.501   7.878   3.866
  619DOPC   C3B 7421   3.695   7.819   4.293
  619DOPC   C4B 7422   3.949   7.872   4.721
  620DOPC   NC3 7423   5.101   9.980   2.688
  620DOPC   PO4 7424   5.371   9.733   2.850
  620DOPC   GL1 7425   5.186   9.737   3.233
  620DOPC   GL2 7426   4.991   9.966   3.138
  620DOPC   C1A 7427   5.245   9.665   3.669
  620DOPC   D2A 7428   5.168   9.634   4.165
  620DOPC   C3A 7429   5.198   9.673   4.626
  620DOPC   C4A 7430   5.269   9.842   5.085
  620DOPC   C1B 7431   4.646   0.050   3.401
  620DOPC   D2B 7432   4.313   9.865   3.734
  620DOPC   C3B 7433   4.383   0.003   4.187
  620DOPC   C4B 7434   4.520   0.157   4.636
  621DOPC   NC3 7435  19.319   9.246   2.679
  621DOPC   PO4 7436  19.022   9.204   2.943
  621DOPC   GL1 7437  19.131   9.047   3.359
  621DOPC   GL2 7438  19.233   9.331   3.369
  621DOPC   C1A 7439  19.178   8.976   3.816
  621DOPC   D2A 7440  19.275   9.117   4.309
  621DOPC   C3A 7441  19.323   9.297   4.766
  621DOPC   C4A 7442  19.268   9.384   5.278
  621DOPC   C1B 7443  19.191   9.482   3.777
  621DOPC   D2B 7444  19.049   9.610   4.229
  621DOPC   C3B 7445  19.441   9.696   4.460
  621DOPC   C4B 7446  19.842   9.733   4.744
  622DOPC   NC3 7447   2.797   9.229   2.623
  622DOPC   PO4 7448   2.720   8.835   2.660
  622DOPC   GL1 7449   2.907   8.568   2.980
  622DOPC   GL2 7450   3.154   8.724   2.916
  622DOPC   C1A 7451   2.791   8.564   3.417
  622DOPC   D2A 7452   2.693   8.537   3.911
  622DOPC   C3A 7453   2.932   8.453   4.313
  622DOPC   C4A 7454   3.173   8.288   4.716
  622DOPC   C1B 7455   3.417   8.902   3.206
  622DOPC   D2B 7456   3.533   8.901   3.687
  622DOPC   C3B 7457   3.152   8.791   3.929
  622DOPC   C4B 7458   2.793   8.957   4.238
  623DOPC   NC3 7459   7.637   1.405   2.646
  623DOPC   PO4 7460   7.850   1.732   2.746
  623DOPC   GL1 7461   7.618   1.821   3.137
  623DOPC   GL2 7462   7.450   1.580   3.048
  623DOPC   C1A 7463   7.570   1.662   3.556
  623DOPC   D2A 7464   7.256   1.436   3.920
  623DOPC   C3A 7465   7.042   1.370   4.362
  623DOPC   C4A 7466   6.683   1.313   4.727
  623DOPC   C1B 7467   7.306   1.275   3.359
  623DOPC   D2B 7468   7.227   0.897   3.690
  623DOPC   C3B 7469   7.221   0.790   4.147
  623DOPC   C4B 7470   7.238   0.626   4.607
  624DOPC   NC3 7471   8.086   3.434   2.525
  624DOPC   PO4 7472   8.159   3.436   2.917
  624DOPC   GL1 7473   8.247   3.739   3.219
  624DOPC   GL2 7474   8.534   3.614   3.198
  624DOPC   C1A 7475   8.152   3.623   3.640
  624DOPC   D2A 7476   8.001   3.479   4.099
  624DOPC   C3A 7477   7.949   3.559   4.560
  624DOPC   C4A 7478   7.813   3.539   5.044
  624DOPC   C1B 7479   8.616   3.434   3.574
  624DOPC   D2B 7480   8.495   3.443   4.049
  624DOPC   C3B 7481   8.432   3.264   4.471
  624DOPC   C4B 7482   8.507   2.992   4.885
  625DOPC   NC3 7483  16.500   6.574   2.511
  625DOPC   PO4 7484  16.741   6.798   2.741
  625DOPC   GL1 7485  16.832   6.641   3.154
  625DOPC   GL2 7486  16.720   6.358   3.046
  625DOPC   C1A 7487  16.807   6.672   3.615
  625DOPC   D2A 7488  16.738   6.773   4.116
  625DOPC   C3A 7489  16.704   6.630   4.574
  625DOPC   C4A 7490  16.731   6.598   5.069
  625DOPC   C1B 7491  16.775   6.170   3.446
  625DOPC   D2B 7492  16.870   6.243   3.950
  625DOPC   C3B 7493  16.743   6.147   4.406
  625DOPC   C4B 7494  16.619   6.131   4.888
  626DOPC   NC3 7495  11.053   5.822   2.521
  626DOPC   PO4 7496  11.445   5.811   2.503
  626DOPC   GL1 7497  11.573   5.993   2.805
  626DOPC   GL2 7498  11.304   6.161   2.795
  626DOPC   C1A 7499  11.591   5.942   3.208
  626DOPC   D2A 7500  11.620   5.897   3.701
  626DOPC   C3A 7501  11.465   5.898   4.144
  626DOPC   C4A 7502  11.302   5.847   4.621
  626DOPC   C1B 7503  11.230   6.312   3.198
  626DOPC   D2B 7504  11.232   6.224   3.689
  626DOPC   C3B 7505  11.083   6.237   4.131
  626DOPC   C4B 7506  11.017   6.280   4.611
  627DOPC   NC3 7507  19.820   3.050   2.626
  627DOPC   PO4 7508  19.565   2.785   2.762
  627DOPC   GL1 7509  19.781   2.693   3.119
  627DOPC   GL2 7510  19.928   2.976   3.112
  627DOPC   C1A 7511  19.609   2.555   3.511
  627DOPC   D2A 7512  19.504   2.635   4.000
  627DOPC   C3A 7513  19.597   2.600   4.464
  627DOPC   C4A 7514  19.863   2.726   4.869
  627DOPC   C1B 7515   0.027   3.142   3.533
  627DOPC   D2B 7516   0.044   3.264   4.033
  627DOPC   C3B 7517  19.762   3.103   4.387
  627DOPC   C4B 7518  19.440   3.012   4.759
  628DOPC   NC3 7519   1.500   2.430   2.562
  628DOPC   PO4 7520   1.889   2.410   2.668
  628DOPC   GL1 7521   1.847   2.362   3.093
  628DOPC   GL2 7522   2.095   2.169   3.052
  628DOPC   C1A 7523   1.751   2.178   3.486
  628DOPC   D2A 7524   1.860   1.874   3.882
  628DOPC   C3A 7525   1.843   2.016   4.336
  628DOPC   C4A 7526   2.085   2.175   4.749
  628DOPC   C1B 7527   2.225   1.948   3.432
  628DOPC   D2B 7528   2.421   1.826   3.885
  628DOPC   C3B 7529   2.268   1.734   4.320
  628DOPC   C4B 7530   1.961   1.662   4.706
  629DOPC   NC3 7531  18.591   1.392   2.763
  629DOPC   PO4 7532  18.791   1.721   2.875
  629DOPC   GL1 7533  18.930   1.614   3.211
  629DOPC   GL2 7534  18.897   1.319   3.189
  629DOPC   C1A 7535  18.861   1.800   3.615
  629DOPC   D2A 7536  18.835   1.884   4.110
  629DOPC   C3A 7537  19.043   1.718   4.502
  629DOPC   C4A 7538  19.341   1.529   4.854
  629DOPC   C1B 7539  19.009   1.326   3.632
  629DOPC   D2B 7540  19.097   1.320   4.136
  629DOPC   C3B 7541  19.053   1.199   4.593
  629DOPC   C4B 7542  19.070   1.110   5.090
  630DOPC   NC3 7543   4.371   3.752   2.813
  630DOPC   PO4 7544   4.185   4.066   2.649
  630DOPC   GL1 7545   4.419   4.214   2.959
  630DOPC   GL2 7546   4.217   4.418   3.068
  630DOPC   C1A 7547   4.303   3.967   3.315
  630DOPC   D2A 7548   4.096   3.978   3.773
  630DOPC   C3A 7549   4.008   3.994   4.228
  630DOPC   C4A 7550   3.862   3.967   4.710
  630DOPC   C1B 7551   4.240   4.417   3.539
  630DOPC   D2B 7552   4.233   4.427   4.055
  630DOPC   C3B 7553   4.221   4.338   4.533
  630DOPC   C4B 7554   4.249   4.135   4.996
  631DOPC   NC3 7555  16.008   2.282   2.576
  631DOPC   PO4 7556  15.951   2.384   2.956
  631DOPC   GL1 7557  16.205   2.048   2.999
  631DOPC   GL2 7558  16.001   1.859   2.858
  631DOPC   C1A 7559  16.227   1.963   3.439
  631DOPC   D2A 7560  16.166   1.960   3.937
  631DOPC   C3A 7561  16.170   2.014   4.415
  631DOPC   C4A 7562  16.153   1.954   4.919
  631DOPC   C1B 7563  15.805   1.734   3.231
  631DOPC   D2B 7564  15.695   1.907   3.690
  631DOPC   C3B 7565  15.700   1.904   4.165
  631DOPC   C4B 7566  15.695   1.942   4.657
  632DOPC   NC3 7567  19.731   3.574   2.721
  632DOPC   PO4 7568   0.030   3.413   2.921
  632DOPC   GL1 7569  19.753   3.461   3.256
  632DOPC   GL2 7570  19.624   3.725   3.158
  632DOPC   C1A 7571  19.689   3.498   3.710
  632DOPC   D2A 7572  19.679   3.613   4.205
  632DOPC   C3A 7573  19.839   3.537   4.647
  632DOPC   C4A 7574  19.822   3.237   5.045
  632DOPC   C1B 7575  19.545   3.976   3.543
  632DOPC   D2B 7576  19.460   4.071   4.042
  632DOPC   C3B 7577  19.434   3.939   4.500
  632DOPC   C4B 7578  19.312   3.524   4.735
  633DOPC   NC3 7579  18.085   8.159   2.423
  633DOPC   PO4 7580  17.999   7.957   2.755
  633DOPC   GL1 7581  18.312   8.014   3.025
  633DOPC   GL2 7582  18.216   8.306   3.000
  633DOPC   C1A 7583  18.208   7.944   3.437
  633DOPC   D2A 7584  18.074   8.103   3.889
  633DOPC   C3A 7585  18.141   7.980   4.335
  633DOPC   C4A 7586  18.292   7.846   4.774
  633DOPC   C1B 7587  18.172   8.463   3.439
  633DOPC   D2B 7588  18.043   8.622   3.913
  633DOPC   C3B 7589  17.985   8.479   4.357
  633DOPC   C4B 7590  17.941   8.228   4.779
  634DOPC   NC3 7591   3.504   4.739   2.235
  634DOPC   PO4 7592   3.715   4.927   2.518
  634DOPC   GL1 7593   3.522   5.007   2.867
  634DOPC   GL2 7594   3.634   5.274   2.955
  634DOPC   C1A 7595   3.455   4.954   3.277
  634DOPC   D2A 7596   3.303   5.098   3.721
  634DOPC   C3A 7597   3.226   4.841   4.101
  634DOPC   C4A 7598   3.275   4.655   4.556
  634DOPC   C1B 7599   3.500   5.452   3.352
  634DOPC   D2B 7600   3.426   5.604   3.831
  634DOPC   C3B 7601   3.332   5.335   4.212
  634DOPC   C4B 7602   3.207   5.172   4.672
  635DOPC   NC3 7603   7.406   8.585   2.619
  635DOPC   PO4 7604   7.169   8.784   2.873
  635DOPC   GL1 7605   7.087   8.467   3.227
  635DOPC   GL2 7606   7.356   8.575   3.298
  635DOPC   C1A 7607   6.973   8.428   3.658
  635DOPC   D2A 7608   7.112   8.646   4.095
  635DOPC   C3A 7609   7.215   8.732   4.550
  635DOPC   C4A 7610   7.182   8.624   5.023
  635DOPC   C1B 7611   7.333   8.810   3.667
  635DOPC   D2B 7612   7.308   9.128   4.052
  635DOPC   C3B 7613   7.506   9.181   4.475
  635DOPC   C4B 7614   7.759   9.239   4.894
  636DOPC   NC3 7615   6.496   3.454   2.523
  636DOPC   PO4 7616   6.679   3.745   2.726
  636DOPC   GL1 7617   6.332   3.872   3.007
  636DOPC   GL2 7618   6.274   3.543   2.960
  636DOPC   C1A 7619   6.398   4.101   3.413
  636DOPC   D2A 7620   6.617   4.221   3.875
  636DOPC   C3A 7621   6.829   4.051   4.285
  636DOPC   C4A 7622   7.068   3.949   4.720
  636DOPC   C1B 7623   6.156   3.354   3.348
  636DOPC   D2B 7624   5.956   3.359   3.809
  636DOPC   C3B 7625   6.166   3.450   4.216
  636DOPC   C4B 7626   6.412   3.554   4.635
  637DOPC   NC3 7627   6.442   8.424   2.798
  637DOPC   PO4 7628   6.560   8.044   2.867
  637DOPC   GL1 7629   6.591   8.312   3.220
  637DOPC   GL2 7630   6.794   8.138   3.328
  637DOPC   C1A 7631   6.450   8.548   3.557
  637DOPC   D2A 7632   6.614   8.518   4.029
  637DOPC   C3A 7633   6.553   8.208   4.378
  637DOPC   C4A 7634   6.242   7.922   4.643
  637DOPC   C1B 7635   6.655   8.018   3.738
  637DOPC   D2B 7636   6.813   7.625   4.013
  637DOPC   C3B 7637   6.796   7.751   4.456
  637DOPC   C4B 7638   6.722   8.003   4.871
  638DOPC   NC3 7639   8.678   0.698   2.588
  638DOPC   PO4 7640   8.522   0.322   2.560
  638DOPC   GL1 7641   8.371   0.307   2.997
  638DOPC   GL2 7642   8.545   0.558   3.015
  638DOPC   C1A 7643   8.412   0.246   3.437
  638DOPC   D2A 7644   8.474   0.355   3.921
  638DOPC   C3A 7645   8.523   0.121   4.324
  638DOPC   C4A 7646   8.578   9.869   4.747
  638DOPC   C1B 7647   8.625   0.720   3.414
  638DOPC   D2B 7648   8.657   0.857   3.904
  638DOPC   C3B 7649   8.740   0.606   4.309
  638DOPC   C4B 7650   8.900   0.282   4.668
  639DOPC   NC3 7651   0.431   6.483   2.509
  639DOPC   PO4 7652   0.327   6.687   2.839
  639DOPC   GL1 7653   0.261   6.408   3.111
  639DOPC   GL2 7654   0.021   6.255   3.014
  639DOPC   C1A 7655   0.371   6.387   3.543
  639DOPC   D2A 7656   0.554   6.323   4.010
  639DOPC   C3A 7657   0.437   6.582   4.395
  639DOPC   C4A 7658   0.352   6.742   4.861
  639DOPC   C1B 7659  19.948   6.103   3.424
  639DOPC   D2B 7660   0.120   6.077   3.890
  639DOPC   C3B 7661   0.203   6.135   4.347
  639DOPC   C4B 7662   0.473   6.214   4.766
  640DOPC   NC3 7663   2.998   4.559   2.792
  640DOPC   PO4 7664   3.168   4.861   2.590
  640DOPC   GL1 7665   3.071   4.987   2.994
  640DOPC   GL2 7666   2.775   4.993   2.899
  640DOPC   C1A 7667   3.006   4.769   3.391
  640DOPC   D2A 7668   2.936   4.525   3.826
  640DOPC   C3A 7669   2.783   4.628   4.255
  640DOPC   C4A 7670   2.823   4.822   4.703
  640DOPC   C1B 7671   2.693   5.147   3.310
  640DOPC   D2B 7672   2.803   5.079   3.806
  640DOPC   C3B 7673   2.815   5.151   4.272
  640DOPC   C4B 7674   2.667   5.323   4.705
  641DOPC   NC3 7675   0.837   4.442   2.516
  641DOPC   PO4 7676   1.229   4.477   2.587
  641DOPC   GL1 7677   1.181   4.649   2.999
  641DOPC   GL2 7678   0.882   4.555   2.981
  641DOPC   C1A 7679   1.245   4.655   3.443
  641DOPC   D2A 7680   1.370   4.649   3.938
  641DOPC   C3A 7681   1.422   4.643   4.413
  641DOPC   C4A 7682   1.548   4.515   4.874
  641DOPC   C1B 7683   0.731   4.563   3.400
  641DOPC   D2B 7684   0.744   4.576   3.901
  641DOPC   C3B 7685   0.944   4.480   4.311
  641DOPC   C4B 7686   1.160   4.237   4.689
  642DOPC   NC3 7687   2.977   9.920   2.412
  642DOPC   PO4 7688   3.146   9.562   2.469
  642DOPC   GL1 7689   3.224   9.350   2.870
  642DOPC   GL2 7690   3.392   9.612   2.894
  642DOPC   C1A 7691   3.074   9.282   3.300
  642DOPC   D2A 7692   2.974   9.254   3.805
  642DOPC   C3A 7693   3.039   9.430   4.242
  642DOPC   C4A 7694   3.152   9.682   4.648
  642DOPC   C1B 7695   3.208   9.776   3.241
  642DOPC   D2B 7696   3.020   9.763   3.699
  642DOPC   C3B 7697   3.012   9.941   4.125
  642DOPC   C4B 7698   2.939   0.188   4.539
  643DOPC   NC3 7699  16.690   3.635   2.707
  643DOPC   PO4 7700  17.064   3.742   2.815
  643DOPC   GL1 7701  16.954   3.941   3.202
  643DOPC   GL2 7702  16.719   3.715   3.189
  643DOPC   C1A 7703  16.827   3.921   3.628
  643DOPC   D2A 7704  16.722   3.922   4.123
  643DOPC   C3A 7705  16.549   3.741   4.526
  643DOPC   C4A 7706  16.433   3.614   4.998
  643DOPC   C1B 7707  16.720   3.435   3.568
  643DOPC   D2B 7708  16.673   3.299   4.066
  643DOPC   C3B 7709  16.424   3.231   4.476
  643DOPC   C4B 7710  16.093   3.262   4.862
  644DOPC   NC3 7711   8.533   9.779   2.506
  644DOPC   PO4 7712   8.252   9.899   2.764
  644DOPC   GL1 7713   8.128   9.601   3.037
  644DOPC   GL2 7714   8.340   9.397   2.983
  644DOPC   C1A 7715   8.136   9.794   3.433
  644DOPC   D2A 7716   8.194   9.901   3.918
  644DOPC   C3A 7717   8.339   9.652   4.295
  644DOPC   C4A 7718   8.598   9.366   4.612
  644DOPC   C1B 7719   8.522   9.434   3.406
  644DOPC   D2B 7720   8.629   9.592   3.884
  644DOPC   C3B 7721   8.852   9.702   4.303
  644DOPC   C4B 7722   9.081   9.754   4.751
  645DOPC   NC3 7723  18.240   6.791   2.575
  645DOPC   PO4 7724  18.411   6.450   2.679
  645DOPC   GL1 7725  18.613   6.717   2.996
  645DOPC   GL2 7726  18.325   6.645   3.107
  645DOPC   C1A 7727  18.720   6.895   3.392
  645DOPC   D2A 7728  18.653   7.053   3.864
  645DOPC   C3A 7729  18.599   6.878   4.301
  645DOPC   C4A 7730  18.601   6.573   4.706
  645DOPC   C1B 7731  18.216   6.797   3.520
  645DOPC   D2B 7732  18.169   6.994   3.980
  645DOPC   C3B 7733  18.099   6.771   4.377
  645DOPC   C4B 7734  18.063   6.498   4.783
  646DOPC   NC3 7735  13.256   3.640   2.777
  646DOPC   PO4 7736  13.659   3.710   2.775
  646DOPC   GL1 7737  13.865   3.591   3.141
  646DOPC   GL2 7738  13.723   3.811   3.327
  646DOPC   C1A 7739  14.061   3.539   3.533
  646DOPC   D2A 7740  14.044   3.476   4.026
  646DOPC   C3A 7741  13.984   3.525   4.487
  646DOPC   C4A 7742  13.962   3.836   4.875
  646DOPC   C1B 7743  13.845   3.914   3.797
  646DOPC   D2B 7744  13.869   4.009   4.323
  646DOPC   C3B 7745  13.672   4.252   4.720
  646DOPC   C4B 7746  13.425   4.527   5.088
  647DOPC   NC3 7747  10.022   7.343   2.706
  647DOPC   PO4 7748  10.157   7.664   2.898
  647DOPC   GL1 7749  10.151   7.682   3.341
  647DOPC   GL2 7750   9.846   7.644   3.272
  647DOPC   C1A 7751  10.219   7.604   3.790
  647DOPC   D2A 7752  10.231   7.604   4.298
  647DOPC   C3A 7753   9.851   7.681   4.579
  647DOPC   C4A 7754   9.498   7.825   4.908
  647DOPC   C1B 7755   9.550   7.643   3.610
  647DOPC   D2B 7756   9.300   7.745   4.037
  647DOPC   C3B 7757   9.340   7.592   4.478
  647DOPC   C4B 7758   9.457   7.321   4.878
  648DOPC   NC3 7759  10.997   9.367   2.981
  648DOPC   PO4 7760  10.892   9.670   2.743
  648DOPC   GL1 7761  10.865   9.815   3.140
  648DOPC   GL2 7762  11.193   9.797   3.112
  648DOPC   C1A 7763  10.871   9.600   3.524
  648DOPC   D2A 7764  11.086   9.398   3.942
  648DOPC   C3A 7765  10.964   9.596   4.365
  648DOPC   C4A 7766  10.946   9.798   4.819
  648DOPC   C1B 7767  11.383   9.586   3.473
  648DOPC   D2B 7768  11.590   9.523   3.940
  648DOPC   C3B 7769  11.446   9.460   4.392
  648DOPC   C4B 7770  11.157   9.345   4.792
  649DOPC   NC3 7771   4.534   2.171   2.706
  649DOPC   PO4 7772   4.356   2.522   2.791
  649DOPC   GL1 7773   4.265   2.467   3.195
  649DOPC   GL2 7774   4.354   2.163   3.157
  649DOPC   C1A 7775   4.330   2.498   3.626
  649DOPC   D2A 7776   4.442   2.433   4.106
  649DOPC   C3A 7777   4.329   2.229   4.506
  649DOPC   C4A 7778   4.149   1.957   4.874
  649DOPC   C1B 7779   4.400   1.968   3.561
  649DOPC   D2B 7780   4.466   1.898   4.059
  649DOPC   C3B 7781   4.338   1.705   4.469
  649DOPC   C4B 7782   4.028   1.451   4.763
  650DOPC   NC3 7783   9.010   1.390   2.921
  650DOPC   PO4 7784   9.017   1.077   2.675
  650DOPC   GL1 7785   8.839   0.904   2.996
  650DOPC   GL2 7786   8.546   1.018   2.929
  650DOPC   C1A 7787   8.972   1.083   3.385
  650DOPC   D2A 7788   9.057   1.180   3.874
  650DOPC   C3A 7789   9.024   1.027   4.324
  650DOPC   C4A 7790   9.001   0.783   4.758
  650DOPC   C1B 7791   8.489   1.225   3.319
  650DOPC   D2B 7792   8.556   1.370   3.785
  650DOPC   C3B 7793   8.568   1.255   4.238
  650DOPC   C4B 7794   8.530   0.991   4.656
  651DOPC   NC3 7795  15.501   8.061   2.714
  651DOPC   PO4 7796  15.617   7.668   2.712
  651DOPC   GL1 7797  15.270   7.592   2.975
  651DOPC   GL2 7798  15.390   7.845   3.114
  651DOPC   C1A 7799  15.310   7.473   3.403
  651DOPC   D2A 7800  15.521   7.496   3.862
  651DOPC   C3A 7801  15.575   7.439   4.331
  651DOPC   C4A 7802  15.622   7.329   4.819
  651DOPC   C1B 7803  15.502   7.920   3.554
  651DOPC   D2B 7804  15.600   7.948   4.059
  651DOPC   C3B 7805  15.919   7.808   4.397
  651DOPC   C4B 7806  16.111   7.777   4.861
  652DOPC   NC3 7807   4.279   3.012   2.633
  652DOPC   PO4 7808   4.661   2.934   2.725
  652DOPC   GL1 7809   4.524   2.856   3.094
  652DOPC   GL2 7810   4.317   3.089   3.095
  652DOPC   C1A 7811   4.722   2.765   3.478
  652DOPC   D2A 7812   4.832   2.726   3.969
  652DOPC   C3A 7813   4.635   2.830   4.386
  652DOPC   C4A 7814   4.332   2.934   4.761
  652DOPC   C1B 7815   4.266   3.135   3.531
  652DOPC   D2B 7816   4.329   2.956   3.988
  652DOPC   C3B 7817   4.288   3.232   4.356
  652DOPC   C4B 7818   4.203   3.426   4.800
  653DOPC   NC3 7819   1.926   6.373   2.602
  653DOPC   PO4 7820   2.060   6.667   2.831
  653DOPC   GL1 7821   2.064   6.339   3.083
  653DOPC   GL2 7822   2.340   6.274   3.136
  653DOPC   C1A 7823   1.806   6.277   3.443
  653DOPC   D2A 7824   1.589   6.358   3.885
  653DOPC   C3A 7825   1.808   6.451   4.301
  653DOPC   C4A 7826   1.919   6.626   4.764
  653DOPC   C1B 7827   2.295   6.375   3.566
  653DOPC   D2B 7828   2.185   6.641   3.978
  653DOPC   C3B 7829   2.318   6.565   4.417
  653DOPC   C4B 7830   2.424   6.318   4.815
  654DOPC   NC3 7831   4.671   2.579   2.399
  654DOPC   PO4 7832   5.006   2.545   2.629
  654DOPC   GL1 7833   4.912   2.628   3.040
  654DOPC   GL2 7834   5.006   2.921   3.071
  654DOPC   C1A 7835   5.103   2.415   3.388
  654DOPC   D2A 7836   5.275   2.116   3.767
  654DOPC   C3A 7837   5.444   2.194   4.202
  654DOPC   C4A 7838   5.588   2.398   4.630
  654DOPC   C1B 7839   5.168   3.010   3.511
  654DOPC   D2B 7840   5.191   3.114   4.023
  654DOPC   C3B 7841   5.161   3.013   4.499
  654DOPC   C4B 7842   5.311   2.758   4.916
  655DOPC   NC3 7843  10.614   0.215   2.859
  655DOPC   PO4 7844  10.449   9.874   2.919
  655DOPC   GL1 7845  10.452   0.007   3.290
  655DOPC   GL2 7846  10.241   0.218   3.179
  655DOPC   C1A 7847  10.611   0.040   3.702
  655DOPC   D2A 7848  10.677   0.058   4.190
  655DOPC   C3A 7849  10.545   0.016   4.629
  655DOPC   C4A 7850  10.502   9.878   5.094
  655DOPC   C1B 7851  10.201   0.373   3.574
  655DOPC   D2B 7852  10.226   0.326   4.070
  655DOPC   C3B 7853  10.356   0.464   4.494
  655DOPC   C4B 7854  10.152   0.722   4.847
  656DOPC   NC3 7855   1.257   0.161   2.769
  656DOPC   PO4 7856   1.596   0.371   2.792
  656DOPC   GL1 7857   1.615   0.207   3.179
  656DOPC   GL2 7858   1.325   0.178   3.223
  656DOPC   C1A 7859   1.613   0.229   3.608
  656DOPC   D2A 7860   1.398   0.400   4.025
  656DOPC   C3A 7861   1.428   0.254   4.480
  656DOPC   C4A 7862   1.520   0.058   4.917
  656DOPC   C1B 7863   1.162   0.448   3.544
  656DOPC   D2B 7864   0.984   0.747   3.914
  656DOPC   C3B 7865   1.039   0.574   4.353
  656DOPC   C4B 7866   0.953   0.195   4.670
  657DOPC   NC3 7867   4.381   9.019   2.353
  657DOPC   PO4 7868   4.256   8.648   2.417
  657DOPC   GL1 7869   4.226   8.742   2.840
  657DOPC   GL2 7870   4.414   8.963   2.845
  657DOPC   C1A 7871   4.234   8.687   3.286
  657DOPC   D2A 7872   4.100   8.606   3.780
  657DOPC   C3A 7873   4.219   8.627   4.247
  657DOPC   C4A 7874   4.386   8.818   4.689
  657DOPC   C1B 7875   4.443   9.173   3.253
  657DOPC   D2B 7876   4.375   9.311   3.753
  657DOPC   C3B 7877   4.517   9.048   4.132
  657DOPC   C4B 7878   4.732   8.638   4.357
  658DOPC   NC3 7879  17.901   5.307   2.611
  658DOPC   PO4 7880  17.537   5.280   2.765
  658DOPC   GL1 7881  17.760   5.251   3.133
  658DOPC   GL2 7882  17.996   5.426   3.062
  658DOPC   C1A 7883  17.828   5.127   3.567
  658DOPC   D2A 7884  17.865   4.967   4.041
  658DOPC   C3A 7885  17.777   5.033   4.504
  658DOPC   C4A 7886  17.719   5.047   5.005
  658DOPC   C1B 7887  18.281   5.301   3.394
  658DOPC   D2B 7888  18.372   5.053   3.833
  658DOPC   C3B 7889  18.294   5.017   4.307
  658DOPC   C4B 7890  18.215   5.040   4.792
  659DOPC   NC3 7891   0.222   2.134   2.625
  659DOPC   PO4 7892   0.169   1.730   2.653
  659DOPC   GL1 7893   0.126   1.692   3.109
  659DOPC   GL2 7894   0.067   1.992   3.064
  659DOPC   C1A 7895   0.284   1.622   3.541
  659DOPC   D2A 7896   0.501   1.564   4.000
  659DOPC   C3A 7897   0.558   1.739   4.441
  659DOPC   C4A 7898   0.668   1.885   4.911
  659DOPC   C1B 7899   0.293   2.132   3.417
  659DOPC   D2B 7900   0.525   2.391   3.772
  659DOPC   C3B 7901   0.569   2.411   4.243
  659DOPC   C4B 7902   0.686   2.392   4.728
  660DOPC   NC3 7903  19.153   7.276   2.502
  660DOPC   PO4 7904  19.490   7.483   2.523
  660DOPC   GL1 7905  19.803   7.536   2.831
  660DOPC   GL2 7906  19.842   7.223   2.793
  660DOPC   C1A 7907  19.718   7.595   3.284
  660DOPC   D2A 7908  19.754   7.608   3.798
  660DOPC   C3A 7909  19.523   7.327   4.084
  660DOPC   C4A 7910  19.342   7.380   4.539
  660DOPC   C1B 7911  19.827   7.093   3.213
  660DOPC   D2B 7912  19.843   7.100   3.722
  660DOPC   C3B 7913  19.904   7.023   4.188
  660DOPC   C4B 7914  19.909   6.903   4.684
  661DOPC   NC3 7915  13.189   6.308   2.723
  661DOPC   PO4 7916  13.521   6.114   2.839
  661DOPC   GL1 7917  13.548   6.240   3.231
  661DOPC   GL2 7918  13.240   6.268   3.223
  661DOPC   C1A 7919  13.656   6.120   3.642
  661DOPC   D2A 7920  13.806   6.055   4.106
  661DOPC   C3A 7921  13.706   5.694   4.387
  661DOPC   C4A 7922  13.662   5.335   4.737
  661DOPC   C1B 7923  13.153   6.160   3.647
  661DOPC   D2B 7924  13.306   5.954   4.093
  661DOPC   C3B 7925  13.434   6.178   4.484
  661DOPC   C4B 7926  13.423   6.482   4.881
  662DOPC   NC3 7927   3.404   6.238   2.510
  662DOPC   PO4 7928   3.308   6.587   2.690
  662DOPC   GL1 7929   3.322   6.264   2.978
  662DOPC   GL2 7930   3.608   6.243   2.969
  662DOPC   C1A 7931   3.277   6.339   3.401
  662DOPC   D2A 7932   3.146   6.460   3.870
  662DOPC   C3A 7933   3.313   6.512   4.289
  662DOPC   C4A 7934   3.637   6.535   4.638
  662DOPC   C1B 7935   3.744   6.508   3.310
  662DOPC   D2B 7936   3.990   6.659   3.736
  662DOPC   C3B 7937   3.955   6.839   4.174
  662DOPC   C4B 7938   3.923   6.946   4.641
  663DOPC   NC3 7939   5.872   6.154   2.476
  663DOPC   PO4 7940   5.681   6.262   2.802
  663DOPC   GL1 7941   5.417   6.535   2.990
  663DOPC   GL2 7942   5.603   6.772   2.904
  663DOPC   C1A 7943   5.479   6.440   3.436
  663DOPC   D2A 7944   5.509   6.384   3.934
  663DOPC   C3A 7945   5.554   6.268   4.390
  663DOPC   C4A 7946   5.563   6.243   4.885
  663DOPC   C1B 7947   5.825   6.794   3.275
  663DOPC   D2B 7948   5.933   6.590   3.722
  663DOPC   C3B 7949   5.924   6.586   4.201
  663DOPC   C4B 7950   5.934   6.514   4.696
  664DOPC   NC3 7951  10.317   4.105   2.703
  664DOPC   PO4 7952   9.961   4.021   2.872
  664DOPC   GL1 7953   9.993   4.335   3.146
  664DOPC   GL2 7954  10.282   4.208   3.196
  664DOPC   C1A 7955   9.876   4.369   3.562
  664DOPC   D2A 7956   9.685   4.239   4.011
  664DOPC   C3A 7957   9.835   4.158   4.452
  664DOPC   C4A 7958   9.887   3.927   4.901
  664DOPC   C1B 7959  10.316   4.126   3.641
  664DOPC   D2B 7960  10.188   3.957   4.101
  664DOPC   C3B 7961  10.288   3.907   4.570
  664DOPC   C4B 7962  10.404   3.930   5.058
  665DOPC   NC3 7963   4.929   5.646   2.531
  665DOPC   PO4 7964   4.944   6.008   2.703
  665DOPC   GL1 7965   5.269   6.093   2.983
  665DOPC   GL2 7966   5.388   5.804   2.983
  665DOPC   C1A 7967   5.164   6.031   3.404
  665DOPC   D2A 7968   4.967   5.916   3.839
  665DOPC   C3A 7969   5.086   6.175   4.197
  665DOPC   C4A 7970   5.116   6.415   4.613
  665DOPC   C1B 7971   5.364   5.555   3.369
  665DOPC   D2B 7972   5.196   5.448   3.826
  665DOPC   C3B 7973   5.154   5.661   4.241
  665DOPC   C4B 7974   5.281   5.878   4.671
  666DOPC   NC3 7975   6.499   2.278   2.647
  666DOPC   PO4 7976   6.890   2.282   2.771
  666DOPC   GL1 7977   6.787   2.167   3.189
  666DOPC   GL2 7978   6.485   2.154   3.101
  666DOPC   C1A 7979   6.760   1.924   3.575
  666DOPC   D2A 7980   6.762   1.704   4.032
  666DOPC   C3A 7981   6.728   1.761   4.500
  666DOPC   C4A 7982   6.776   1.760   4.998
  666DOPC   C1B 7983   6.252   1.941   3.421
  666DOPC   D2B 7984   6.244   1.628   3.817
  666DOPC   C3B 7985   6.254   1.720   4.276
  666DOPC   C4B 7986   6.274   1.818   4.770
  667DOPC   NC3 7987  18.748   8.379   2.669
  667DOPC   PO4 7988  18.541   8.036   2.613
  667DOPC   GL1 7989  18.739   7.892   2.974
  667DOPC   GL2 7990  19.012   8.008   2.866
  667DOPC   C1A 7991  18.701   7.869   3.437
  667DOPC   D2A 7992  18.543   7.884   3.946
  667DOPC   C3A 7993  18.643   7.948   4.421
  667DOPC   C4A 7994  18.741   8.009   4.920
  667DOPC   C1B 7995  19.196   7.751   3.188
  667DOPC   D2B 7996  19.286   7.616   3.667
  667DOPC   C3B 7997  19.176   7.689   4.139
  667DOPC   C4B 7998  19.103   7.825   4.614
  668DOPC   NC3 7999  15.954   0.147   2.262
  668DOPC   PO4 8000  15.988   0.425   2.553
  668DOPC   GL1 8001  16.074   0.325   2.954
  668DOPC   GL2 8002  16.185   0.607   3.046
  668DOPC   C1A 8003  15.861   0.338   3.335
  668DOPC   D2A 8004  15.891   0.430   3.833
  668DOPC   C3A 8005  15.735   0.351   4.277
  668DOPC   C4A 8006  15.483   0.316   4.716
  668DOPC   C1B 8007  16.083   0.762   3.473
  668DOPC   D2B 8008  15.890   0.973   3.905
  668DOPC   C3B 8009  15.817   0.858   4.367
  668DOPC   C4B 8010  15.868   0.661   4.836
  669DOPC   NC3 8011   2.234   4.274   2.464
  669DOPC   PO4 8012   2.348   4.041   2.776
  669DOPC   GL1 8013   2.573   4.034   3.107
  669DOPC   GL2 8014   2.800   4.198   3.017
  669DOPC   C1A 8015   2.473   4.206   3.492
  669DOPC   D2A 8016   2.309   4.377   3.930
  669DOPC   C3A 8017   2.329   4.438   4.395
  669DOPC   C4A 8018   2.455   4.494   4.861
  669DOPC   C1B 8019   3.028   4.215   3.411
  669DOPC   D2B 8020   3.268   4.141   3.859
  669DOPC   C3B 8021   3.136   4.239   4.293
  669DOPC   C4B 8022   2.923   4.297   4.743
  670DOPC   NC3 8023  14.911   0.193   2.418
  670DOPC   PO4 8024  15.201   0.101   2.682
  670DOPC   GL1 8025  15.173   9.805   3.013
  670DOPC   GL2 8026  14.871   9.846   2.946
  670DOPC   C1A 8027  15.103   9.717   3.449
  670DOPC   D2A 8028  15.100   9.648   3.953
  670DOPC   C3A 8029  14.978   9.767   4.400
  670DOPC   C4A 8030  14.981   0.140   4.731
  670DOPC   C1B 8031  14.643   9.971   3.321
  670DOPC   D2B 8032  14.536   0.109   3.802
  670DOPC   C3B 8033  14.527   0.034   4.271
  670DOPC   C4B 8034  14.551   9.853   4.734
  671DOPC   NC3 8035   9.161   5.345   2.553
  671DOPC   PO4 8036   9.195   5.063   2.846
  671DOPC   GL1 8037   9.208   5.250   3.250
  671DOPC   GL2 8038   9.467   5.375   3.166
  671DOPC   C1A 8039   9.113   5.365   3.693
  671DOPC   D2A 8040   9.167   5.652   4.117
  671DOPC   C3A 8041   9.181   5.816   4.559
  671DOPC   C4A 8042   9.420   5.560   4.902
  671DOPC   C1B 8043   9.526   5.627   3.534
  671DOPC   D2B 8044   9.604   5.915   3.938
  671DOPC   C3B 8045   9.514   6.161   4.329
  671DOPC   C4B 8046   9.545   6.392   4.769
  672PF10C   C1 8047  14.595   5.111   2.910
  672PF10C   F2 8048  14.707   5.096   3.116
  672PF10C   F3 8049  14.610   5.269   3.211
  672PF10C   F4 8050  14.726   5.277   3.410
  672PF10C   F5 8051  14.555   5.328   3.538
  672PF10C   F6 8052  14.670   5.472   3.675
  672PF10C   F7 8053  14.509   5.621   3.697
  672PF10C   F8 8054  14.550   5.664   3.919
  672PF10C   F9 8055  14.524   5.883   3.906
  672PF10C  F10 8056  14.627   5.930   4.107
  673PF10C   C1 8057  12.876   6.112   2.996
  673PF10C   F2 8058  12.925   5.894   3.068
  673PF10C   F3 8059  13.027   5.952   3.254
  673PF10C   F4 8060  13.070   5.744   3.341
  673PF10C   F5 8061  13.276   5.787   3.406
  673PF10C   F6 8062  13.264   5.666   3.601
  673PF10C   F7 8063  13.384   5.805   3.721
  673PF10C   F8 8064  13.497   5.643   3.840
  673PF10C   F9 8065  13.693   5.744   3.837
  673PF10C  F10 8066  13.808   5.578   3.948
  674PF10C   C1 8067  12.810   8.163   2.798
  674PF10C   F2 8068  12.847   8.318   2.971
  674PF10C   F3 8069  12.884   8.167   3.126
  674PF10C   F4 8070  12.941   8.298   3.306
  674PF10C   F5 8071  12.835   8.174   3.453
  674PF10C   F6 8072  12.789   8.341   3.605
  674PF10C   F7 8073  12.815   8.211   3.781
  674PF10C   F8 8074  12.932   8.361   3.910
  674PF10C   F9 8075  12.841   8.302   4.102
  674PF10C  F10 8076  12.987   8.419   4.235
  675W        W 8077   0.123   8.345   8.187
  676W        W 8078  15.542   3.717   9.112
  677W        W 8079   7.960   2.237   9.834
  678W        W 8080   7.171   2.608   8.651
  679W        W 8081  13.356   3.040   8.559
  680W        W 8082  18.432   8.147   1.167
  681W        W 8083   8.478   5.013   9.578
  682W        W 8084  15.412   7.063   9.267
  683W        W 8085   6.933   5.238   2.530
  684W        W 8086   6.955   3.523   0.604
  685W        W 8087  15.242   7.917   9.621
  686W        W 8088   6.199   4.907   1.468
  687W        W 8089   7.529   4.627   0.306
  688W        W 8090   4.758   7.602   9.288
  689W        W 8091  11.715   2.943   9.781
  690W        W 8092   7.192   9.357   8.786
  691W        W 8093   7.980   4.401   2.178
  692W        W 8094  19.017   2.223   0.145
  693W        W 8095  12.078   9.211   2.090
  694W        W 8096   0.683   6.413   1.233
  695W        W 8097   1.631   5.819   9.919
  696W        W 8098  18.957   1.208   9.213
  697W        W 8099   5.410   1.459   0.271
  698W        W 8100   5.442   7.936   8.189
  699W        W 8101   7.647   2.706   1.762
  700W        W 8102   3.319   3.059   1.022
  701W        W 8103   1.294   8.408   9.504
  702W        W 8104  12.111   8.842   1.120
  703W        W 8105  18.211   2.819   1.508
  704W        W 8106  16.748   5.068   0.222
  705W        W 8107  10.598   0.787   1.596
  706W        W 8108   4.389   0.538   1.117
  707W        W 8109   0.285   5.078   9.828
  708W        W 8110   0.680   5.440   2.623
  709W        W 8111   9.779   0.136   1.844
  710W        W 8112   6.804   7.890   1.371
  711W        W 8113  15.601   1.219   8.517
  712W        W 8114  16.266   1.769   9.147
  713W        W 8115   9.074   3.429   0.559
  714W        W 8116   1.430   0.539   2.340
  715W        W 8117  16.784   9.791   9.053
  716W        W 8118  18.122   0.160   0.027
  717W        W 8119  19.540   4.394   7.490
  718W        W 8120   0.918   1.486   1.705
  719W        W 8121  16.922   4.284   0.833
  720W        W 8122   5.780   9.780   9.376
  721W        W 8123  10.917   7.116   1.711
  722W        W 8124  13.744   2.058   9.956
  723W        W 8125  18.138   5.873   1.293
  724W        W 8126  14.538   6.931   1.323
  725W        W 8127  14.329   3.534   7.857
  726W        W 8128  17.355   5.380   8.685
  727W        W 8129  19.924   1.176   1.682
  728W        W 8130  14.798   7.825   9.365
  729W        W 8131   5.463   7.546   0.287
  730W        W 8132  11.287   2.425   1.653
  731W        W 8133  17.439   2.936   8.082
  732W        W 8134   2.173   4.801   9.501
  733W        W 8135   6.804   8.257   7.391
  734W        W 8136   9.080   0.501   7.733
  735W        W 8137   4.878   2.137   8.963
  736W        W 8138  18.174   0.948   1.766
  737W        W 8139  10.586   9.722   8.285
  738W        W 8140  16.665   6.980   8.810
  739W        W 8141   4.127   3.069   0.641
  740W        W 8142  19.527   3.877   7.531
  741W        W 8143   5.549   5.592   1.331
  742W        W 8144  11.885   7.512   1.508
  743W        W 8145   9.189   5.403   8.824
  744W        W 8146   0.722   0.054   9.092
  745W        W 8147  17.418   3.399   9.928
  746W        W 8148  15.192   0.471   1.524
  747W        W 8149  11.000   2.517   9.060
  748W        W 8150  15.471   0.281   7.704
  749W        W 8151   8.836   5.715   0.345
  750W        W 8152  19.346   0.187   1.985
  751W        W 8153  13.040   1.140   9.074
  752W        W 8154   2.676   5.407   1.150
  753W        W 8155   1.772   7.690   9.626
  754W        W 8156   2.527   4.962   1.924
  755W        W 8157  11.344   1.067   9.693
  756W        W 8158  12.830   5.882   8.467
  757W        W 8159  11.324   6.426   9.659
  758W        W 8160  11.488   4.282   1.285
  759W        W 8161   0.772   4.480   1.219
  760W        W 8162  15.847   5.907   8.772
  761W        W 8163  19.052   4.740   0.605
  762W        W 8164  12.069   4.532   0.651
  763W        W 8165   4.778   1.180   2.350
  764W        W 8166   3.936   7.537   2.121
  765W        W 8167  11.877   3.754   0.671
  766W        W 8168  11.677   3.015   8.398
  767W        W 8169   3.761   4.154   0.645
  768W        W 8170   8.438   1.397   9.740
  769W        W 8171  11.077   6.456   0.101
  770W        W 8172  19.151   6.764   2.246
  771W        W 8173  16.890   9.171   1.396
  772W        W 8174  11.820   6.495   1.549
  773W        W 8175   4.672   3.268   0.872
  774W        W 8176  14.592   2.731   9.269
  775W        W 8177  16.301   4.054   8.576
  776W        W 8178   3.228   9.513   8.916
  777W        W 8179   0.445   6.037   0.441
  778W        W 8180   5.984   3.009   9.205
  779W        W 8181   0.101   8.331   7.667
  780W        W 8182  17.681   6.442   0.427
  781W        W 8183  11.706   3.340   0.916
  782W        W 8184  13.829   2.877   1.132
  783W        W 8185   2.505   7.846   9.953
  784W        W 8186   6.523   3.599   2.006
  785W        W 8187  11.406   1.033   8.829
  786W        W 8188  14.230   0.936   7.565
  787W        W 8189   7.643   0.440   2.362
  788W        W 8190  10.926   1.600   0.524
  789W        W 8191   3.994   6.441   0.230
  790W        W 8192   5.243   6.995   1.199
  791W        W 8193   0.714   0.195   0.113
  792W        W 8194  11.094   0.681   9.030
  793W        W 8195  10.700   6.254   8.420
  794W        W 8196  16.398   6.341   0.541
  795W        W 8197  19.266   2.744   9.788
  796W        W 8198  15.609   4.121   8.132
  797W        W 8199  14.237   7.493   2.133
  798W        W 8200  10.135   8.903   8.933
  799W        W 8201  14.551   8.652   9.471
  800W        W 8202  14.697   9.403   7.518
  801W        W 8203   8.191   9.569   9.156
  802W        W 8204   0.789   3.761   1.351
  803W        W 8205  13.585   3.036   1.559
  804W        W 8206   6.978   6.209   9.976
  805W        W 8207  12.329   5.858   2.443
  806W        W 8208  13.376   7.952   2.267
  807W        W 8209   5.234   3.280   0.444
  808W        W 8210  12.073   6.045   8.908
  809W        W 8211  10.820   7.545   0.185
  810W        W 8212   5.099   9.005   1.945
  811W        W 8213   9.081   5.429   1.615
  812W        W 8214   7.157   7.933   8.502
  813W        W 8215   3.313   8.710   0.891
  814W        W 8216   5.723   5.131   9.083
  815W        W 8217   1.229   2.929   9.893
  816W        W 8218   7.448   4.467   8.600
  817W        W 8219  12.603   9.137   0.514
  818W        W 8220   7.820   1.544   1.252
  819W        W 8221  13.034   3.485   9.372
  820W        W 8222   5.554   3.202   2.701
  821W        W 8223   4.738   6.350   0.724
  822W        W 8224  10.514   9.631   0.535
  823W        W 8225   9.151   9.220   1.831
  824W        W 8226  19.717   1.620   8.939
  825W        W 8227   6.893   1.512   1.688
  826W        W 8228  15.767   1.571   1.255
  827W        W 8229  13.360   8.667   0.443
  828W        W 8230   3.183   2.763   0.605
  829W        W 8231  13.899   7.461   1.719
  830W        W 8232   2.869   0.423   0.290
  831W        W 8233  13.600   1.442   8.788
  832W        W 8234  10.093   0.593   2.256
  833W        W 8235   7.867   7.272   2.207
  834W        W 8236   0.401   0.335   8.282
  835W        W 8237   2.888   6.869   0.486
  836W        W 8238   2.247   3.635   1.924
  837W        W 8239   7.461   1.419   9.446
  838W        W 8240   8.083   8.257   1.353
  839W        W 8241   6.418   3.976   9.023
  840W        W 8242  19.413   1.940   8.585
  841W        W 8243   2.617   8.932   1.269
  842W        W 8244  11.267   3.814   9.686
  843W        W 8245  14.794   4.076   9.368
  844W        W 8246   6.014   9.381   0.173
  845W        W 8247   5.912   6.527   7.699
  846W        W 8248  13.052   1.982   7.787
  847W        W 8249  15.080   1.602   0.656
  848W        W 8250   6.574   0.543   7.797
  849W        W 8251  16.902   4.247   9.861
  850W        W 8252   1.179   1.553   8.752
  851W        W 8253  18.678   8.979   7.802
  852W        W 8254  19.917   7.385   1.861
  853W        W 8255   7.177   1.964   1.729
  854W        W 8256  12.716   0.509   2.130
  855W        W 8257   9.919   8.239   0.659
  856W        W 8258  15.233   7.643   8.724
  857W        W 8259  10.713   7.918   8.069
  858W        W 8260  12.020   9.188   8.925
  859W        W 8261   5.995   0.406   1.875
  860W        W 8262   3.713   4.343   1.124
  861W        W 8263   0.265   4.458   1.036
  862W        W 8264  10.219   7.888   7.950
  863W        W 8265   6.837   1.858   8.096
  864W        W 8266  17.409   9.026   0.770
  865W        W 8267  18.442   8.746   8.844
  866W        W 8268   8.596   1.334   2.583
  867W        W 8269   3.773   8.464   9.351
  868W        W 8270  13.597   3.751   1.076
  869W        W 8271   8.979   2.147   8.034
  870W        W 8272  13.630   5.616   1.294
  871W        W 8273   0.092   3.378   2.377
  872W        W 8274   6.442   1.526   1.450
  873W        W 8275  12.334   4.221   7.374
  874W        W 8276   4.409   2.323   8.991
  875W        W 8277   3.368   0.200   9.477
  876W        W 8278   5.643   5.365   7.590
  877W        W 8279   7.363   4.336   1.037
  878W        W 8280  11.560   6.932   1.233
  879W        W 8281  11.039   4.596   8.555
  880W        W 8282  10.352   1.130   7.831
  881W        W 8283  19.462   0.276   8.141
  882W        W 8284  13.400   8.802   8.508
  883W        W 8285   3.398  -0.018   9.005
  884W        W 8286  19.914   1.902   1.316
  885W        W 8287  15.128   0.404   2.018
  886W        W 8288   8.654   3.551   2.772
  887W        W 8289   4.078   7.785   1.032
  888W        W 8290  10.892   2.923   2.417
  889W        W 8291  19.832   7.440   1.340
  890W        W 8292  16.028   2.803   1.001
  891W        W 8293   3.375   0.843   2.675
  892W        W 8294  11.871   7.085   2.210
  893W        W 8295  10.760   6.097   9.291
  894W        W 8296   3.057   3.969   1.161
  895W        W 8297   0.107   7.489   0.705
  896W        W 8298  17.883   8.264   0.360
  897W        W 8299  13.183   0.707   2.080
  898W        W 8300  11.618   2.244   2.532
  899W        W 8301   3.068   3.788   9.048
  900W        W 8302   5.774   1.093   0.262
  901W        W 8303  16.399   9.912   9.723
  902W        W 8304  14.552   3.621   9.335
  903W        W 8305   7.073   2.143   1.248
  904W        W 8306  13.293   0.308   1.766
  905W        W 8307  18.261   0.922   2.315
  906W        W 8308  12.800   4.174   1.598
  907W        W 8309   8.174   0.887   9.378
  908W        W 8310  17.940   8.113   9.337
  909W        W 8311  16.449   3.356   9.906
  910W        W 8312   9.353   4.429   2.429
  911W        W 8313   5.469   1.375   7.957
  912W        W 8314  15.087   9.238   7.809
  913W        W 8315   9.992   6.726   1.436
  914W        W 8316   7.209   9.873   1.244
  915W        W 8317  18.600   1.284   2.182
  916W        W 8318   4.296   6.534   9.786
  917W        W 8319  19.489   3.999   0.801
  918W        W 8320   1.960   6.715   0.267
  919W        W 8321  15.433   2.773   9.428
  920W        W 8322   3.078   5.731   1.061
  921W        W 8323  19.935   5.802   2.227
  922W        W 8324   8.571   5.520   1.697
  923W        W 8325  11.892   2.533   9.497
  924W        W 8326   1.521   2.487   0.754
  925W        W 8327  13.953   9.343   9.155
  926W        W 8328  17.805   2.364   8.376
  927W        W 8329  15.647   5.037   9.139
  928W        W 8330   0.637   7.017   1.735
  929W        W 8331   5.424   5.869   2.540
  930W        W 8332  10.042   6.911   8.804
  931W        W 8333   7.394   1.183   7.883
  932W        W 8334   6.451   8.053   0.799
  933W        W 8335   9.194   6.090   0.252
  934W        W 8336  11.702   0.041   9.135
  935W        W 8337   9.000   6.946   9.958
  936W        W 8338  13.884   2.158   8.391
  937W        W 8339   7.475   5.899   9.286
  938W        W 8340   6.296   0.828   1.962
  939W        W 8341   7.537   5.797   0.290
  940W        W 8342   4.324   0.052   2.475
  941W        W 8343   7.089   5.280   7.758
  942W        W 8344  12.383   2.283   9.740
  943W        W 8345   7.551   6.119   7.523
  944W        W 8346   1.153   3.661   0.243
  945W        W 8347   1.875   6.401   1.610
  946W        W 8348   8.961   9.819   9.486
  947W        W 8349   8.999   6.077   8.444
  948W        W 8350   6.459   0.291   1.581
  949W        W 8351   3.860   9.911   8.755
  950W        W 8352  14.256   5.039   9.503
  951W        W 8353   7.123   1.104   9.689
  952W        W 8354   8.910   1.616   0.540
  953W        W 8355  15.258   4.943   9.501
  954W        W 8356   2.179   8.685   9.407
  955W        W 8357   1.311   8.659   7.734
  956W        W 8358  16.920   3.223   2.515
  957W        W 8359  17.051   3.956   1.936
  958W        W 8360  13.979   7.559   8.017
  959W        W 8361  10.576   7.756   9.768
  960W        W 8362  11.361   4.168   2.437
  961W        W 8363  13.200   2.809   8.129
  962W        W 8364   6.473   9.083   8.412
  963W        W 8365   4.960   4.717   8.733
  964W        W 8366  13.814   4.798   9.413
  965W        W 8367   9.716   6.656   8.376
  966W        W 8368   6.378   2.608   8.311
  967W        W 8369  14.859   8.785   8.526
  968W        W 8370   4.069   6.156   8.071
  969W        W 8371  15.063   7.168   0.187
  970W        W 8372   2.593   4.564   0.629
  971W        W 8373  16.736   6.019   8.777
  972W        W 8374   2.247   7.637   8.442
  973W        W 8375   9.502   2.682   8.545
  974W        W 8376   4.690   6.358   1.564
  975W        W 8377   7.687   1.559   0.388
  976W        W 8378  18.832   6.443   9.187
  977W        W 8379  19.391   1.207   0.921
  978W        W 8380   4.517   1.775   1.607
  979W        W 8381   5.572   2.855   9.476
  980W        W 8382   0.819   8.044   0.609
  981W        W 8383  13.545   5.797   8.006
  982W        W 8384   1.603   5.967   8.497
  983W        W 8385   1.688   1.364   1.293
  984W        W 8386  17.808   4.415   2.229
  985W        W 8387  14.284   2.295   0.691
  986W        W 8388  13.071   1.367   2.113
  987W        W 8389  12.251   8.256   8.425
  988W        W 8390  12.472   3.777   1.748
  989W        W 8391   8.960   3.000   8.079
  990W        W 8392   3.311   8.532   9.102
  991W        W 8393   7.038   4.636   8.876
  992W        W 8394   8.524   0.421   8.815
  993W        W 8395  12.907   6.085   1.160
  994W        W 8396  11.223   6.290   2.343
  995W        W 8397   8.832   6.954   8.456
  996W        W 8398   7.983   9.208   0.241
  997W        W 8399   7.593   1.628   7.702
  998W        W 8400   3.885   6.864   1.493
  999W        W 8401   7.385   3.501   8.190
 1000W        W 8402  12.945   7.659   8.185
 1001W        W 8403   1.401   2.473   7.626
 1002W        W 8404   2.560   0.023   0.170
 1003W        W 8405   3.588   6.798   1.891
 1004W        W 8406  13.329   8.957   8.991
 1005W        W 8407   3.921   2.055   8.482
 1006W        W 8408  11.762   5.061   2.428
 1007W        W 8409  17.490   9.793   1.201
 1008W        W 8410  16.412   0.825   0.238
 1009W        W 8411   3.883   5.707   8.234
 1010W        W 8412   8.765   6.497   8.701
 1011W        W 8413  16.474   2.735   9.246
 1012W        W 8414   9.721   9.266   8.986
 1013W        W 8415  15.431   3.832   8.578
 1014W        W 8416  12.039   9.548   1.676
 1015W        W 8417   0.770   2.998   2.545
 1016W        W 8418   8.015   6.020   8.033
 1017W        W 8419  19.429   7.147   1.214
 1018W        W 8420   8.995   9.760   8.925
 1019W        W 8421  19.008   3.216   1.558
 1020W        W 8422   1.040   2.584   0.899
 1021W        W 8423  18.876   1.929   8.046
 1022W        W 8424   6.473   6.588   0.077
 1023W        W 8425   2.629   9.999   8.424
 1024W        W 8426  16.712   5.577   7.537
 1025W        W 8427  14.327   7.744   0.540
 1026W        W 8428   4.684   9.553   0.012
 1027W        W 8429  11.816   9.929   9.631
 1028W        W 8430  12.487   0.645   7.637
 1029W        W 8431  11.670   9.168   1.443
 1030W        W 8432  16.295   5.668   0.522
 1031W        W 8433  14.058   2.273   1.216
 1032W        W 8434   0.943   6.275   9.418
 1033W        W 8435  12.252   6.894   1.892
 1034W        W 8436  17.108   3.106   7.740
 1035W        W 8437  18.795   9.679   0.477
 1036W        W 8438  11.973   0.688   9.784
 1037W        W 8439  15.283   2.304   9.581
 1038W        W 8440   3.701   1.292   0.088
 1039W        W 8441  18.752   5.500   0.352
 1040W        W 8442   1.831   0.024   1.626
 1041W        W 8443   6.412   2.216   8.901
 1042W        W 8444   6.804   0.605   1.878
 1043W        W 8445  13.953   4.220   0.947
 1044W        W 8446  13.370   1.539   7.837
 1045W        W 8447  18.011   6.394   8.235
 1046W        W 8448  14.555   6.931   8.989
 1047W        W 8449  10.199   4.035   8.831
 1048W        W 8450  19.645   9.675   0.238
 1049W        W 8451  19.531   7.503   7.472
 1050W        W 8452  11.574   5.575   0.131
 1051W        W 8453   8.765   6.512   8.193
 1052W        W 8454  15.331   3.028   7.270
 1053W        W 8455   2.264   0.931   9.250
 1054W        W 8456  16.006   7.717   9.711
 1055W        W 8457   7.288   0.501   9.191
 1056W        W 8458  15.141   4.569   1.243
 1057W        W 8459  18.418   3.689   9.991
 1058W        W 8460  19.993   7.537   8.771
 1059W        W 8461  17.352   1.110   1.186
 1060W        W 8462  11.080   6.482   0.996
 1061W        W 8463  17.413   0.290   8.956
 1062W        W 8464   0.276   3.280   0.708
 1063W        W 8465  13.396   3.752   2.283
 1064W        W 8466   3.267   5.337   1.788
 1065W        W 8467  14.220   2.655   2.249
 1066W        W 8468   5.990   6.874   8.470
 1067W        W 8469  15.568   7.874   0.919
 1068W        W 8470  15.966   0.649   2.091
 1069W        W 8471  18.450   1.433   1.020
 1070W        W 8472  13.254   1.821   1.415
 1071W        W 8473   4.011   5.426   9.457
 1072W        W 8474   2.828   2.515   9.371
 1073W        W 8475  12.108   5.135   0.635
 1074W        W 8476   8.003   8.328   0.322
 1075W        W 8477  12.950   6.784   9.297
 1076W        W 8478   3.373   2.246   8.947
 1077W        W 8479  19.893   1.208   0.727
 1078W        W 8480   2.160   2.640   0.732
 1079W        W 8481  12.038   3.030   0.182
 1080W        W 8482   2.185   9.543   9.551
 1081W        W 8483   6.934   3.535   2.309
 1082W        W 8484  19.931   4.149   0.595
 1083W        W 8485   1.446   9.264   7.718
 1084W        W 8486   4.396   3.503   8.363
 1085W        W 8487   1.535   4.182   1.334
 1086W        W 8488  17.408   7.211   7.967
 1087W        W 8489   9.545   5.794   1.081
 1088W        W 8490  18.165   7.669   0.194
 1089W        W 8491  18.493   3.894   8.732
 1090W        W 8492   4.256   1.764   2.487
 1091W        W 8493   8.481   1.385   7.610
 1092W        W 8494  14.665   0.618   9.763
 1093W        W 8495  19.839   1.056   8.664
 1094W        W 8496   7.380   8.742   1.272
 1095W        W 8497  12.781   9.790   9.251
 1096W        W 8498  14.609   4.086   8.099
 1097W        W 8499   9.411   5.846   7.868
 1098W        W 8500   2.497   7.539   0.347
 1099W        W 8501   8.890   8.409   9.720
 1100W        W 8502  13.894   0.574   8.339
 1101W        W 8503   9.257   7.749   7.968
 1102W        W 8504   2.467   9.281   0.908
 1103W        W 8505   9.731   7.591   1.043
 1104W        W 8506  11.226   9.130   0.751
 1105W        W 8507  17.879   4.587   8.344
 1106W        W 8508  13.666   6.091   1.599
 1107W        W 8509  15.920   9.710   9.608
 1108W        W 8510  19.488   6.455   8.802
 1109W        W 8511   9.233   8.758   2.110
 1110W        W 8512   3.695   3.060   0.200
 1111W        W 8513  17.877   0.649   2.067
 1112W        W 8514  14.433   4.407   7.735
 1113W        W 8515  16.945   7.723   9.297
 1114W        W 8516   5.911   4.670   9.232
 1115W        W 8517   7.887   0.521   8.513
 1116W        W 8518   5.240   4.129   0.359
 1117W        W 8519   2.665   0.205   1.514
 1118W        W 8520  10.341   1.071   8.828
 1119W        W 8521   4.323   0.143   9.364
 1120W        W 8522  18.619   0.535   7.538
 1121W        W 8523   2.162   3.912   0.221
 1122W        W 8524   2.330   3.969   1.564
 1123W        W 8525   6.580   3.888   9.888
 1124W        W 8526   2.235   2.182   1.160
 1125W        W 8527  17.832   4.495   0.859
 1126W        W 8528  18.230   8.963   8.027
 1127W        W 8529   3.269   8.197   1.077
 1128W        W 8530   4.154   8.725   0.100
 1129W        W 8531  12.929   7.833   2.470
 1130W        W 8532  18.161   8.147   8.465
 1131W        W 8533   1.774   6.512   0.688
 1132W        W 8534  11.917   5.182   1.140
 1133W        W 8535  10.033   0.753   8.527
 1134W        W 8536  18.801   6.946   8.448
 1135W        W 8537   6.225   6.743   9.612
 1136W        W 8538   4.944   2.746   0.235
 1137W        W 8539   7.701   0.927   8.247
 1138W        W 8540   1.290   3.744   2.142
 1139W        W 8541   6.214   1.162   2.407
 1140W        W 8542   9.768   7.069   9.219
 1141W        W 8543  17.230   2.841   2.303
 1142W        W 8544  11.923   2.577   8.475
 1143W        W 8545   5.296   2.968   1.874
 1144W        W 8546  14.340   9.673   7.981
 1145W        W 8547   6.681   7.613   7.613
 1146W        W 8548  12.422   0.870   1.546
 1147W        W 8549  17.122   9.917   1.835
 1148W        W 8550   8.391   7.298   7.960
 1149W        W 8551  19.275   8.186   0.324
 1150W        W 8552   8.193   7.817   1.063
 1151W        W 8553   4.910   5.897   1.621
 1152W        W 8554   7.263   1.826   9.692
 1153W        W 8555  19.612   8.477   0.700
 1154W        W 8556  17.941   9.223   1.992
 1155W        W 8557   5.938   5.996   8.471
 1156W        W 8558  16.113   3.615   1.204
 1157W        W 8559  12.846   1.540   7.982
 1158W        W 8560   5.818   7.533   8.093
 1159W        W 8561  16.746   3.381   8.269
 1160W        W 8562  11.493   0.720   1.633
 1161W        W 8563  14.744   3.171   8.009
 1162W        W 8564  10.108   9.828   8.436
 1163W        W 8565  16.414   4.680   0.338
 1164W        W 8566   9.748   5.798   1.891
 1165W        W 8567   8.541   6.944   7.097
 1166W        W 8568  13.554   1.623   0.647
 1167W        W 8569   5.620   4.374   7.917
 1168W        W 8570  19.903   7.049   1.019
 1169W        W 8571  11.782   4.934   0.303
 1170W        W 8572  14.526   7.055   0.360
 1171W        W 8573  16.630   7.396   0.848
 1172W        W 8574  15.835   9.872   1.673
 1173W        W 8575   6.835   2.815   9.254
 1174W        W 8576   8.696   7.592   1.109
 1175W        W 8577  16.894   6.958   7.903
 1176W        W 8578   2.820   2.578   7.853
 1177W        W 8579   6.743   9.823   0.357
 1178W        W 8580   0.208   5.322   1.043
 1179W        W 8581  12.704   0.451   9.987
 1180W        W 8582   8.335   4.013   0.112
 1181W        W 8583  18.317   7.651   1.020
 1182W        W 8584   2.229   7.463   0.840
 1183W        W 8585   3.887   8.663   0.514
 1184W        W 8586   6.686   5.780   8.836
 1185W        W 8587  14.005   6.193   1.992
 1186W        W 8588  13.358   8.828   7.937
 1187W        W 8589   3.808   5.996   1.211
 1188W        W 8590   3.812   7.035   9.234
 1189W        W 8591   8.136   3.004   1.738
 1190W        W 8592  12.059   3.302   7.866
 1191W        W 8593   9.744   0.669   8.932
 1192W        W 8594   5.487   7.032   8.361
 1193W        W 8595   0.238   6.697   9.215
 1194W        W 8596  11.613   2.144   9.319
 1195W        W 8597  18.084   2.922   9.801
 1196W        W 8598   4.303   5.622   9.859
 1197W        W 8599  13.467   6.884   2.215
 1198W        W 8600  18.286   4.167   2.579
 1199W        W 8601  19.662   6.283   9.795
 1200W        W 8602  10.643   6.750   8.032
 1201W        W 8603   7.466   2.887   0.167
 1202W        W 8604   7.128   9.581   1.647
 1203W        W 8605  11.112   0.606   9.784
 1204W        W 8606   6.415   2.254   2.136
 1205W        W 8607  12.720   1.942   8.840
 1206W        W 8608  11.777   3.781   9.782
 1207W        W 8609  14.251   8.836   1.554
 1208W        W 8610  19.467   4.276   8.438
 1209W        W 8611   9.546   7.541   9.262
 1210W        W 8612   5.644   4.119   1.625
 1211W        W 8613  10.008   6.878   9.721
 1212W        W 8614  19.358   2.417   9.354
 1213W        W 8615  10.817   0.999   9.652
 1214W        W 8616   9.715   1.923   9.532
 1215W        W 8617   8.516  10.000   0.887
 1216W        W 8618   8.501   4.548   1.342
 1217W        W 8619   3.331   1.864   0.688
 1218W        W 8620   9.418   9.308   9.990
 1219W        W 8621  16.622   6.061   9.704
 1220W        W 8622  12.327   1.707   1.075
 1221W        W 8623   5.479   5.419   9.440
 1222W        W 8624  13.143   9.122   0.359
 1223W        W 8625   6.665   6.808   8.288
 1224W        W 8626  13.143   1.335   1.572
 1225W        W 8627  16.237   9.436   9.893
 1226W        W 8628   7.354   5.381   8.174
 1227W        W 8629  10.288   4.267   0.062
 1228W        W 8630   9.894   1.276   0.820
 1229W        W 8631   2.443   9.986   9.676
 1230W        W 8632  19.426   8.754   9.814
 1231W        W 8633   9.112   7.294   1.677
 1232W        W 8634  19.995   9.714   9.867
 1233W        W 8635  12.010   2.545   9.983
 1234W        W 8636  13.810   3.700   7.750
 1235W        W 8637  10.098   8.004   1.100
 1236W        W 8638   6.612   1.866   7.598
 1237W        W 8639   4.148   9.240   8.826
 1238W        W 8640   9.828   6.939   2.433
 1239W        W 8641   4.564   1.816   0.174
 1240W        W 8642   1.072   9.787   8.533
 1241W        W 8643  14.757   6.714   1.717
 1242W        W 8644  14.111   2.927   9.147
 1243W        W 8645  14.029   5.839   7.867
 1244W        W 8646  10.396   8.358   8.082
 1245W        W 8647  11.606   6.908   8.857
 1246W        W 8648   6.766   0.660   1.349
 1247W        W 8649  12.309   3.774   9.785
 1248W        W 8650   8.922   5.669   8.062
 1249W        W 8651  13.307   8.224   9.879
 1250W        W 8652   0.737   8.840   1.610
 1251W        W 8653  18.808   3.513   8.858
 1252W        W 8654  10.793   5.152   0.215
 1253W        W 8655   0.251   3.711   7.870
 1254W        W 8656  13.929   8.807   8.448
 1255W        W 8657   4.279   7.783   0.537
 1256W        W 8658  11.406   4.753   9.532
 1257W        W 8659  19.358   7.827   0.672
 1258W        W 8660   9.201   2.546   8.931
 1259W        W 8661  12.528   5.997   8.086
 1260W        W 8662  19.641   2.695   0.124
 1261W        W 8663   9.804   3.931   9.415
 1262W        W 8664   8.035   8.331   9.261
 1263W        W 8665  18.854   3.150   8.208
 1264W        W 8666   3.581   5.055   8.233
 1265W        W 8667   3.237   8.987   2.558
 1266W        W 8668  19.830   0.681   1.619
 1267W        W 8669  11.055   6.136   1.863
 1268W        W 8670   6.287   8.169   8.745
 1269W        W 8671  10.970   1.447   8.409
 1270W        W 8672  19.509   9.201   0.047
 1271W        W 8673   0.990   8.339   9.899
 1272W        W 8674  17.152   5.375   7.701
 1273W        W 8675   8.571   8.094   1.279
 1274W        W 8676   0.239   1.051   0.360
 1275W        W 8677   9.323   0.927   2.274
 1276W        W 8678  14.706   8.070   0.342
 1277W        W 8679   9.462   7.975   0.785
 1278W        W 8680   8.897   8.306   8.687
 1279W        W 8681   0.945   4.152   8.180
 1280W        W 8682   6.137   6.110   0.290
 1281W        W 8683   8.457   8.535   1.570
 1282W        W 8684  11.989   9.448   1.145
 1283W        W 8685  19.925   8.188   2.294
 1284W        W 8686   0.803   0.209   8.596
 1285W        W 8687  18.548   6.816   1.276
 1286W        W 8688  12.354   6.022   0.262
 1287W        W 8689  13.049   8.564   1.637
 1288W        W 8690  13.942   8.315   1.525
 1289W        W 8691  17.332   4.523   0.642
 1290W        W 8692  12.855   3.853   0.629
 1291W        W 8693  17.454   7.956   9.314
 1292W        W 8694  16.726   0.436   0.373
 1293W        W 8695  13.287   9.908   9.311
 1294W        W 8696  13.448   1.851   9.130
 1295W        W 8697   3.040   8.294   1.521
 1296W        W 8698   8.038   7.893   9.518
 1297W        W 8699  12.842   3.695   1.422
 1298W        W 8700   2.156   0.819   9.740
 1299W        W 8701  15.790   3.854   0.277
 1300W        W 8702  14.702   7.307   9.356
 1301W        W 8703   9.588   7.860   8.855
 1302W        W 8704   0.202   6.293   7.768
 1303W        W 8705  15.821   0.750   8.434
 1304W        W 8706  19.239   0.990   0.466
 1305W        W 8707   9.982   8.740   1.965
 1306W        W 8708   9.860   3.947   8.418
 1307W        W 8709   8.266   1.462   0.954
 1308W        W 8710  19.386   0.505   9.720
 1309W        W 8711  18.856   4.883   2.144
 1310W        W 8712   7.133   7.445   8.251
 1311W        W 8713   9.403   0.700   0.269
 1312W        W 8714   6.073   2.630   7.847
 1313W        W 8715  13.911   3.180   7.815
 1314W        W 8716   3.782   0.805   8.177
 1315W        W 8717   8.597   1.260   8.484
 1316W        W 8718   6.852   3.600   1.623
 1317W        W 8719   7.130   2.260   0.726
 1318W        W 8720  13.034   4.749   8.924
 1319W        W 8721  18.936   1.971   8.716
 1320W        W 8722  19.901   6.494   1.609
 1321W        W 8723   9.421   4.275   9.796
 1322W        W 8724   4.197   6.950   1.116
 1323W        W 8725  14.933   2.388   8.175
 1324W        W 8726  16.722   7.852   8.864
 1325W        W 8727  11.867   6.028   1.147
 1326W        W 8728  13.190   5.414   9.942
 1327W        W 8729  12.632   7.737   0.008
 1328W        W 8730   6.005   0.395   1.359
 1329W        W 8731  12.027   0.627   7.869
 1330W        W 8732  10.537   4.377   8.132
 1331W        W 8733   2.174   5.557   1.139
 1332W        W 8734  18.272   7.229   7.979
 1333W        W 8735   7.647   6.468   1.395
 1334W        W 8736   1.294   3.775   1.517
 1335W        W 8737   4.834   8.233   0.314
 1336W        W 8738   8.074   5.215   9.343
 1337W        W 8739   5.995   5.577   8.176
 1338W        W 8740  19.256   0.039   9.544
 1339W        W 8741  16.204   8.453   7.997
 1340W        W 8742  10.346   7.953   9.337
 1341W        W 8743  19.804   2.528   9.602
 1342W        W 8744   6.120   8.826   1.932
 1343W        W 8745   7.621   8.703   9.788
 1344W        W 8746  14.485   4.587   9.284
 1345W        W 8747  12.742   6.990   1.109
 1346W        W 8748  12.588   6.005   9.830
 1347W        W 8749  14.688   0.401   0.912
 1348W        W 8750   9.003   3.958   8.912
 1349W        W 8751  19.736   3.709   2.239
 1350W        W 8752   2.585   4.577   9.285
 1351W        W 8753   9.414   5.029   1.523
 1352W        W 8754   5.273   7.662   9.337
 1353W        W 8755  10.149   4.315   9.265
 1354W        W 8756   0.858   1.942   8.731
 1355W        W 8757   3.807   3.326   8.980
 1356W        W 8758  14.143   4.559   9.700
 1357W        W 8759   2.418   9.082   2.289
 1358W        W 8760   9.057   2.551   1.657
 1359W        W 8761   9.674   4.045   8.927
 1360W        W 8762  12.349   2.882   2.270
 1361W        W 8763   6.026   5.526   8.724
 1362W        W 8764   6.374   2.238   9.672
 1363W        W 8765   7.313   3.530   1.434
 1364W        W 8766   7.049   6.119   9.464
 1365W        W 8767   0.103   9.620   1.518
 1366W        W 8768  18.411   3.343   8.025
 1367W        W 8769  15.220   5.311   9.122
 1368W        W 8770  13.136   2.675   9.936
 1369W        W 8771   4.246   8.433   1.100
 1370W        W 8772   7.220   5.504   9.499
 1371W        W 8773  11.147   3.611   8.961
 1372W        W 8774   0.122   4.613   9.191
 1373W        W 8775  17.985   0.725   1.334
 1374W        W 8776  11.061   5.575   0.110
 1375W        W 8777  14.997   3.002   2.422
 1376W        W 8778   4.781   1.700   2.640
 1377W        W 8779   4.809   2.126   8.063
 1378W        W 8780  19.192   7.356   8.943
 1379W        W 8781   8.208   3.836   0.590
 1380W        W 8782  12.612   1.014   8.077
 1381W        W 8783  19.668   5.650   0.676
 1382W        W 8784   5.989   2.863   0.226
 1383W        W 8785  16.925   9.841   1.371
 1384W        W 8786   9.878   9.237   2.078
 1385W        W 8787  17.155   5.371   0.085
 1386W        W 8788  18.504   4.924   9.332
 1387W        W 8789   3.564   0.281   8.593
 1388W        W 8790   5.898   1.544   9.206
 1389W        W 8791   0.437   3.200   9.165
 1390W        W 8792  17.017   8.202   8.081
 1391W        W 8793  15.443   6.592   0.428
 1392W        W 8794   1.922   2.168   0.774
 1393W        W 8795  10.648   2.810   9.296
 1394W        W 8796  11.857   5.580   0.569
 1395W        W 8797   1.274   2.685   8.078
 1396W        W 8798  11.895   8.034   1.426
 1397W        W 8799  11.472   0.240   1.844
 1398W        W 8800  15.419   1.713   8.765
 1399W        W 8801  15.127   4.982   8.251
 1400W        W 8802  13.084   7.184   1.849
 1401W        W 8803   0.980   8.116   9.161
 1402W        W 8804   1.582   9.157   1.476
 1403W        W 8805  17.976   1.038   8.370
 1404W        W 8806  11.215   5.152   9.217
 1405W        W 8807  11.804   2.483   0.950
 1406W        W 8808   2.647   1.243   9.986
 1407W        W 8809  18.272   1.921   0.701
 1408W        W 8810   7.462   6.431   9.571
 1409W        W 8811  15.233   1.668   2.146
 1410W        W 8812  12.808   0.980   2.342
 1411W        W 8813   0.627   5.351   0.745
 1412W        W 8814  17.089   1.231   2.299
 1413W        W 8815   6.308   4.552   1.130
 1414W        W 8816  17.242   2.576   0.335
 1415W        W 8817  17.072   7.176   0.368
 1416W        W 8818  14.132   2.943   0.690
 1417W        W 8819   3.705   6.474   0.664
 1418W        W 8820   2.010   7.267   9.429
 1419W        W 8821  10.596   8.646   9.880
 1420W        W 8822   4.170   9.163   0.492
 1421W        W 8823  14.472   8.903   1.100
 1422W        W 8824  12.973   9.331   9.118
 1423W        W 8825   0.170   5.549   0.573
 1424W        W 8826   0.740   3.003   0.718
 1425W        W 8827   7.919   7.277   1.614
 1426W        W 8828  15.763   1.528   7.878
 1427W        W 8829   0.996   0.264   2.308
 1428W        W 8830  17.116   6.768   8.933
 1429W        W 8831   5.665   5.178   8.577
 1430W        W 8832  10.811   6.915   0.763
 1431W        W 8833   4.475   1.197   8.107
 1432W        W 8834  10.105   7.854   8.882
 1433W        W 8835   2.249   8.810   0.921
 1434W        W 8836  16.741   0.324   1.320
 1435W        W 8837   3.515   7.797   0.095
 1436W        W 8838   7.574   8.245   9.529
 1437W        W 8839  10.955   4.727   0.488
 1438W        W 8840   8.088   0.624   8.026
 1439W        W 8841  17.193   5.832   8.871
 1440W        W 8842   6.712   3.829   9.399
 1441W        W 8843  18.018   6.820   0.249
 1442W        W 8844   5.550   1.933   0.166
 1443W        W 8845   5.865   2.132   1.946
 1444W        W 8846  13.743   4.166   1.403
 1445W        W 8847   2.712   2.691   1.586
 1446W        W 8848   4.397   2.821   8.937
 1447W        W 8849   4.566   3.584   0.056
 1448W        W 8850   8.364   2.704   0.453
 1449W        W 8851  13.325   0.927   9.497
 1450W        W 8852   4.593   3.478   1.915
 1451W        W 8853  10.036   7.248   0.590
 1452W        W 8854  17.934   8.623   9.340
 1453W        W 8855   6.495   0.899   8.707
 1454W        W 8856   7.022   5.947   7.551
 1455W        W 8857   4.989   1.648   1.179
 1456W        W 8858   8.388   7.732   8.212
 1457W        W 8859   6.482   1.384   1.995
 1458W        W 8860   7.983   7.859   7.917
 1459W        W 8861  17.765   4.529   0.359
 1460W        W 8862   8.197   3.996   8.293
 1461W        W 8863  19.823   1.828   0.418
 1462W        W 8864  17.885   5.569   9.817
 1463W        W 8865   1.388   4.289   7.967
 1464W        W 8866  19.208   6.113   7.516
 1465W        W 8867  19.927   9.458   8.528
 1466W        W 8868   1.978   0.720   0.236
 1467W        W 8869  18.137   8.847   9.750
 1468W        W 8870   0.903   1.171   0.862
 1469W        W 8871   2.949   0.972   0.950
 1470W        W 8872  10.730   9.263   2.318
 1471W        W 8873   1.814   7.893   9.125
 1472W        W 8874  16.796   6.101   1.085
 1473W        W 8875   5.897   7.868   2.085
 1474W        W 8876  19.376   0.064   0.032
 1475W        W 8877   3.477   5.432   9.490
 1476W        W 8878  16.742   8.679   1.508
 1477W        W 8879  13.179   7.824   1.173
 1478W        W 8880  15.269   8.017   9.115
 1479W        W 8881   5.480   9.807   9.792
 1480W        W 8882   7.636   7.421   0.598
 1481W        W 8883  14.570   2.092   1.586
 1482W        W 8884  17.449   8.463   9.319
 1483W        W 8885   7.494   2.706   8.268
 1484W        W 8886  19.539   6.849   0.145
 1485W        W 8887   0.651   6.472   9.044
 1486W        W 8888   1.687   1.423   8.641
 1487W        W 8889   6.906   1.062   7.861
 1488W        W 8890  19.288   6.268   1.218
 1489W        W 8891  14.278   9.386   1.138
 1490W        W 8892  17.816   3.116   1.671
 1491W        W 8893  12.720   8.225   0.746
 1492W        W 8894  18.434   4.190   0.009
 1493W        W 8895  15.576   8.310   1.521
 1494W        W 8896  16.876   9.875   9.553
 1495W        W 8897  14.902   6.260   8.845
 1496W        W 8898  11.638   4.944   1.492
 1497W        W 8899  19.626   2.940   8.265
 1498W        W 8900   4.088   3.062   9.311
 1499W        W 8901  16.612   8.279   2.285
 1500W        W 8902  16.379   3.143   8.933
 1501W        W 8903   4.172   2.504   8.568
 1502W        W 8904   1.381   2.171   9.432
 1503W        W 8905   9.999   5.614   0.158
 1504W        W 8906  17.124   7.272   0.904
 1505W        W 8907   2.840   3.072   1.231
 1506W        W 8908   3.191   9.548   9.841
 1507W        W 8909   8.428   7.272   9.505
 1508W        W 8910   0.145   9.991   7.609
 1509W        W 8911   4.666   0.820   7.783
 1510W        W 8912   9.368   1.352   8.901
 1511W        W 8913  16.653   9.283   2.201
 1512W        W 8914   6.268   0.822   1.293
 1513W        W 8915  17.767   2.615   1.301
 1514W        W 8916  19.899   6.544   0.768
 1515W        W 8917  12.552   4.257   0.465
 1516W        W 8918   9.290   4.482   0.727
 1517W        W 8919   2.813   9.324   9.192
 1518W        W 8920   9.616   8.849   9.828
 1519W        W 8921  10.809   7.297   9.749
 1520W        W 8922   5.871   1.732   8.270
 1521W        W 8923  15.432   5.011   1.314
 1522W        W 8924   7.500   3.694   9.888
 1523W        W 8925   5.301   7.267   0.723
 1524W        W 8926  19.611   1.530   7.937
 1525W        W 8927  11.871   2.069   9.760
 1526W        W 8928   3.991   1.624   1.011
 1527W        W 8929  14.406   6.517   7.517
 1528W        W 8930  17.004   0.593   8.818
 1529W        W 8931   8.890   5.922   1.680
 1530W        W 8932   7.706   0.152   0.371
 1531W        W 8933   8.687   3.298   9.422
 1532W        W 8934  18.952   3.168   0.559
 1533W        W 8935   3.283   6.773   9.287
 1534W        W 8936  11.634   0.832   8.120
 1535W        W 8937   4.419   0.678   8.629
 1536W        W 8938   7.773   3.538   9.488
 1537W        W 8939  13.683   0.608   1.944
 1538W        W 8940   4.337   9.127   8.341
 1539W        W 8941  17.058   5.486   1.880
 1540W        W 8942  17.176   0.809   9.773
 1541W        W 8943   7.583   2.585   0.725
 1542W        W 8944   3.201   4.373   2.362
 1543W        W 8945  17.978   6.429   9.919
 1544W        W 8946   8.944   5.213   0.231
 1545W        W 8947   0.676   2.026   7.785
 1546W        W 8948  10.863   8.191   9.829
 1547W        W 8949  16.382   4.101   9.445
 1548W        W 8950  10.579   7.486   9.315
 1549W        W 8951  14.855   7.216   1.629
 1550W        W 8952   7.444   5.542   2.496
 1551W        W 8953   5.078   1.277   8.788
 1552W        W 8954   8.570   3.166   1.530
 1553W        W 8955   7.360   4.845   7.872
 1554W        W 8956   4.803   0.973   0.438
 1555W        W 8957  17.115   3.795   9.612
 1556W        W 8958   3.648   1.296   8.081
 1557W        W 8959  14.350   5.763   1.946
 1558W        W 8960  13.905   6.021   1.106
 1559W        W 8961   0.586   2.098   8.324
 1560W        W 8962   5.254   6.331   0.798
 1561W        W 8963  19.346   1.950   9.105
 1562W        W 8964   8.012   1.389   7.847
 1563W        W 8965  16.474   5.193   0.632
 1564W        W 8966  15.867   3.356   8.340
 1565W        W 8967   1.354   8.681   9.958
 1566W        W 8968  18.132   3.970   9.647
 1567W        W 8969  19.191   3.589   0.293
 1568W        W 8970   8.611   7.937   0.242
 1569W        W 8971   0.607   1.533   8.515
 1570W        W 8972  19.111   2.330   7.826
 1571W        W 8973   6.375   2.845   0.574
 1572W        W 8974  15.676   9.169   1.984
 1573W        W 8975  18.020   5.780   2.215
 1574W        W 8976  13.108   1.590   8.811
 1575W        W 8977   9.620   9.789   0.321
 1576W        W 8978  19.194   2.779   8.492
 1577W        W 8979  17.580   5.006   1.346
 1578W        W 8980   0.452   5.174   0.303
 1579W        W 8981  19.689   9.370   1.057
 1580W        W 8982   1.249   0.479   8.488
 1581W        W 8983   0.843   5.792   1.241
 1582W        W 8984   5.600   1.965   9.243
 1583W        W 8985   7.433   0.347   1.292
 1584W        W 8986   1.174   8.990   1.854
 1585W        W 8987  15.560   2.247   7.607
 1586W        W 8988  16.537   7.396   9.468
 1587W        W 8989  10.115   4.731   2.132
 1588W        W 8990  12.104   5.552   0.115
 1589W        W 8991  12.465   0.222   9.103
 1590W        W 8992  18.384   4.345   9.017
 1591W        W 8993   1.538   6.906   0.923
 1592W        W 8994  11.126   9.863   1.231
 1593W        W 8995   1.996   1.322   0.876
 1594W        W 8996   9.459   1.479   1.608
 1595W        W 8997  18.800   2.773   0.889
 1596W        W 8998   9.923   4.340   9.720
 1597W        W 8999  16.302   6.998   9.715
 1598W        W 9000  11.826   6.072   7.554
 1599W        W 9001  17.564   7.277   0.623
 1600W        W 9002   3.281   1.239   0.378
 1601W        W 9003  12.332   5.062   8.065
 1602W        W 9004   4.429   1.333   0.327
 1603W        W 9005   0.639   3.731   8.256
 1604W        W 9006  11.135   9.301   2.029
 1605W        W 9007   6.610   1.146   0.588
 1606W        W 9008  10.458   8.595   2.034
 1607W        W 9009   0.852   1.155   9.706
 1608W        W 9010  16.746   8.125   7.257
 1609W        W 9011   4.026   3.637   9.984
 1610W        W 9012  15.804   8.739   9.347
 1611W        W 9013  16.553   2.888   1.862
 1612W        W 9014   1.795   8.085   0.469
 1613W        W 9015  14.698   2.727   2.140
 1614W        W 9016  14.904   6.238   0.201
 1615W        W 9017   1.984   4.156   2.043
 1616W        W 9018  12.427   5.621   1.458
 1617W        W 9019   6.277   9.902   9.431
 1618W        W 9020   9.870   3.323   1.384
 1619W        W 9021   4.003   4.713   2.133
 1620W        W 9022   7.765   8.585   1.576
 1621W        W 9023  18.014   8.277   1.922
 1622W        W 9024   1.523   7.887   1.303
 1623W        W 9025  18.650   7.944   8.374
 1624W        W 9026  10.511   6.581   9.296
 1625W        W 9027  14.737   4.927   8.620
 1626W        W 9028   7.145   3.340   0.146
 1627W        W 9029   3.827   9.197   8.231
 1628W        W 9030  13.833   3.817   0.632
 1629W        W 9031  19.689   4.707   8.899
 1630W        W 9032  15.630   5.671   0.557
 1631W        W 9033  12.363   4.088   8.478
 1632W        W 9034  13.037   5.773   8.990
 1633W        W 9035  11.254   5.606   8.198
 1634W        W 9036  10.331   8.450   0.306
 1635W        W 9037  11.182   0.964   8.344
 1636W        W 9038   1.972   7.108   1.125
 1637W        W 9039  18.255   1.387   7.682
 1638W        W 9040  14.396   2.678   0.319
 1639W        W 9041  13.631   0.141   2.147
 1640W        W 9042   7.280   3.048   1.668
 1641W        W 9043   4.114   1.215   0.711
 1642W        W 9044   3.247   1.473   1.615
 1643W        W 9045   5.159   9.778   0.783
 1644W        W 9046   7.820   3.230   8.039
 1645W        W 9047  10.547   6.501   0.123
 1646W        W 9048   6.285   5.115   9.943
 1647W        W 9049   3.887   7.338   1.233
 1648W        W 9050  17.365   4.630   2.119
 1649W        W 9051   5.034   6.427   0.323
 1650W        W 9052  11.770   4.754   9.153
 1651W        W 9053  11.445   2.650   9.276
 1652W        W 9054  19.557   9.065   7.470
 1653W        W 9055   2.876   2.819   8.865
 1654W        W 9056   4.828   6.510   9.848
 1655W        W 9057  17.163   5.154   9.576
 1656W        W 9058  13.896   7.921   8.518
 1657W        W 9059  11.509   4.224   9.886
 1658W        W 9060   0.911   7.946   8.165
 1659W        W 9061  17.981   7.364   2.020
 1660W        W 9062   2.001   6.593   1.155
 1661W        W 9063  16.359   5.256   8.739
 1662W        W 9064  18.076   8.803   8.486
 1663W        W 9065  17.165   1.592   7.477
 1664W        W 9066  18.096   7.117   1.092
 1665W        W 9067  10.164   9.044   1.106
 1666W        W 9068  19.702   3.554   0.365
 1667W        W 9069  15.244   0.980   1.612
 1668W        W 9070   8.657   4.108   0.497
 1669W        W 9071   6.907   5.741   9.802
 1670W        W 9072   5.223   0.227   8.880
 1671W        W 9073   8.552   7.516   0.529
 1672W        W 9074   8.899   4.456   2.161
 1673W        W 9075   7.323   6.863   1.457
 1674W        W 9076  10.231   5.571   9.706
 1675W        W 9077  15.227   4.309   8.600
 1676W        W 9078   3.704   5.891   2.317
 1677W        W 9079  10.088   8.650   9.807
 1678W        W 9080  13.594   6.705   9.958
 1679W        W 9081  11.273   0.209   8.885
 1680W        W 9082   4.511   4.727   0.051
 1681W        W 9083   0.147   4.111   9.300
 1682W        W 9084   3.672   0.342   0.766
 1683W        W 9085   2.330   3.017   1.295
 1684W        W 9086  18.206   9.345   1.180
 1685W        W 9087  14.999   8.868   1.032
 1686W        W 9088   8.987   6.121   8.950
 1687W        W 9089  17.499   2.452   2.133
 1688W        W 9090   8.262   3.717   9.398
 1689W        W 9091  17.649   1.681   9.400
 1690W        W 9092   6.018   1.035   7.470
 1691W        W 9093  19.215   2.829   7.979
 1692W        W 9094  11.848   9.648   7.406
 1693W        W 9095  16.675   4.501   1.222
 1694W        W 9096  13.848   7.783   2.252
 1695W        W 9097   1.461   8.215   8.018
 1696W        W 9098   4.622   6.666   8.945
 1697W        W 9099   6.863   0.699   9.440
 1698W        W 9100   9.842   8.489   1.529
 1699W        W 9101  12.628   6.694   8.001
 1700W        W 9102  12.706   4.736   7.959
 1701W        W 9103   1.987   7.597   0.410
 1702W        W 9104   4.540   0.932   9.995
 1703W        W 9105  13.441   8.942   9.491
 1704W        W 9106   0.759   4.918   9.958
 1705W        W 9107  12.591   8.320   1.680
 1706W        W 9108   4.637   1.090   9.116
 1707W        W 9109   3.476   7.698   1.949
 1708W        W 9110  17.468   2.116   8.665
 1709W        W 9111   4.809   2.611   9.186
 1710W        W 9112  17.783   1.656   1.700
 1711W        W 9113   6.073   2.643   1.983
 1712W        W 9114   0.948   7.457   7.989
 1713W        W 9115  11.208   4.272   9.364
 1714W        W 9116  19.051   0.135   0.403
 1715W        W 9117  12.763   7.025   0.610
 1716W        W 9118   7.156   8.531   0.298
 1717W        W 9119   6.550   7.146   0.907
 1718W        W 9120   2.039   5.485   9.745
 1719W        W 9121  14.202   1.068   0.701
 1720W        W 9122   4.246   7.378   7.662
 1721W        W 9123  13.450   9.413   9.269
 1722W        W 9124   7.238   1.548   2.050
 1723W        W 9125  13.878   7.585   9.838
 1724W        W 9126   0.679   3.569   0.423
 1725W        W 9127   1.271   0.025   8.131
 1726W        W 9128  16.299   6.020   0.923
 1727W        W 9129  12.296   3.627   8.738
 1728W        W 9130   7.873   4.184   8.640
 1729W        W 9131  19.264   0.787   1.158
 1730W        W 9132  14.031   8.735   7.445
 1731W        W 9133   3.465   3.986   2.154
 1732W        W 9134  12.321   8.795   1.917
 1733W        W 9135  15.476   0.297   0.630
 1734W        W 9136   8.767   3.240   0.034
 1735W        W 9137   9.798   9.648   9.857
 1736W        W 9138  11.691   8.299   9.350
 1737W        W 9139   1.380   7.913   9.395
 1738W        W 9140  13.905   3.340   0.423
 1739W        W 9141  19.688   3.473   8.937
 1740W        W 9142   1.640   4.818   0.224
 1741W        W 9143  17.714   0.471   7.091
 1742W        W 9144   9.622   2.240   8.272
 1743W        W 9145   1.093   8.884   8.456
 1744W        W 9146  17.947   6.205   9.280
 1745W        W 9147   5.555   2.648   7.965
 1746W        W 9148   3.847   0.013   9.255
 1747W        W 9149   6.934   5.198   2.012
 1748W        W 9150   1.477   0.018   9.668
 1749W        W 9151  17.151   1.637   9.532
 1750W        W 9152  19.956   7.475   9.677
 1751W        W 9153  15.722   8.565   8.493
 1752W        W 9154   9.524   3.740   9.814
 1753W        W 9155   8.130   9.982   9.898
 1754W        W 9156  10.423   2.609   1.807
 1755W        W 9157   7.774   4.825   7.516
 1756W        W 9158  19.291   4.640   8.096
 1757W        W 9159  10.167   0.818   0.810
 1758W        W 9160   4.213   3.364   1.058
 1759W        W 9161  14.334   7.873   7.797
 1760W        W 9162   7.716   2.680   7.804
 1761W        W 9163   7.075   6.669   9.826
 1762W        W 9164  19.333   8.807   0.338
 1763W        W 9165  15.493   2.015   0.535
 1764W        W 9166  18.437   5.148   1.929
 1765W        W 9167  17.833   1.566   7.904
 1766W        W 9168  11.071   3.050   9.081
 1767W        W 9169  19.694   6.236   2.045
 1768W        W 9170  17.401   8.072   0.417
 1769W        W 9171   6.140   3.178   8.653
 1770W        W 9172   5.866   8.387   9.397
 1771W        W 9173  11.116   0.304   9.367
 1772W        W 9174   4.863   1.713   8.389
 1773W        W 9175  10.140   1.922   1.076
 1774W        W 9176  12.083   3.084   1.674
 1775W        W 9177   6.152   1.894   0.818
 1776W        W 9178  15.631   0.296   1.910
 1777W        W 9179   9.493   1.385   2.104
 1778W        W 9180  10.558   4.808   8.462
 1779W        W 9181  14.328   3.221   1.133
 1780W        W 9182   7.133   2.118   2.286
 1781W        W 9183   3.006   4.709   9.015
 1782W        W 9184  16.212   0.875   2.659
 1783W        W 9185  10.594   8.009   0.225
 1784W        W 9186  10.663   9.845   1.425
 1785W        W 9187  12.341   9.161   8.535
 1786W        W 9188   0.694   6.348   9.923
 1787W        W 9189  12.907   6.540   8.839
 1788W        W 9190  15.958   3.953   1.973
 1789W        W 9191  15.187   5.795   9.561
 1790W        W 9192  19.897   5.196   8.450
 1791W        W 9193   4.698   1.318   1.855
 1792W        W 9194   0.155   2.720   1.365
 1793W        W 9195   7.250   7.612   0.312
 1794W        W 9196  18.526   4.216   8.322
 1795W        W 9197   4.000   0.939   1.864
 1796W        W 9198   1.932   6.321   9.315
 1797W        W 9199   2.401   2.044   1.612
 1798W        W 9200  19.786   9.780   0.723
 1799W        W 9201   0.128   5.492   0.067
 1800W        W 9202  18.227   9.045   9.208
 1801W        W 9203   1.832   4.661   1.944
 1802W        W 9204  10.581   1.345   9.300
 1803W        W 9205   3.451   8.305   1.827
 1804W        W 9206   9.895   0.692   9.958
 1805W        W 9207  12.127   9.157   0.725
 1806W        W 9208  16.452   0.254   2.239
 1807W        W 9209  17.406   8.062   8.410
 1808W        W 9210   8.479   4.906   9.076
 1809W        W 9211  11.336   5.196   7.879
 1810W        W 9212  14.580   8.298   9.085
 1811W        W 9213  12.428   8.870   8.986
 1812W        W 9214   2.860   2.243   1.801
 1813W        W 9215   9.331   4.384   1.913
 1814W        W 9216   1.566   6.762   1.411
 1815W        W 9217   6.207   9.517   8.452
 1816W        W 9218   8.350   5.691   7.794
 1817W        W 9219   6.640   9.451   1.564
 1818W        W 9220   6.519   9.819   9.891
 1819W        W 9221  16.674   0.713   1.674
 1820W        W 9222   6.140   1.791   7.846
 1821W        W 9223  10.262   3.955   9.631
 1822W        W 9224   0.315   9.242   8.149
 1823W        W 9225   8.360   6.825   9.236
 1824W        W 9226   0.670   3.548   9.478
 1825W        W 9227  15.017   1.509   9.080
 1826W        W 9228   3.401   2.264   9.793
 1827W        W 9229  12.128   1.305   1.786
 1828W        W 9230  14.199   8.523   8.827
 1829W        W 9231   2.987   2.276   0.683
 1830W        W 9232   6.289   2.311   1.648
 1831W        W 9233  11.448   8.499   7.996
 1832W        W 9234  16.881   8.176   0.500
 1833W        W 9235   1.382   0.226   1.435
 1834W        W 9236  14.328   4.547   0.809
 1835W        W 9237  17.095   8.638   0.587
 1836W        W 9238   3.315   9.460   0.348
 1837W        W 9239  14.231   7.530   8.475
 1838W        W 9240  13.493   2.500   8.455
 1839W        W 9241  14.255   0.791   2.116
 1840W        W 9242  19.925   4.061   8.166
 1841W        W 9243   7.913   6.551   8.761
 1842W        W 9244   9.796   3.299   1.904
 1843W        W 9245   3.719   4.454   9.428
 1844W        W 9246   0.675   3.038   8.745
 1845W        W 9247   0.513   9.736   9.948
 1846W        W 9248  10.023   3.253   2.442
 1847W        W 9249  16.058   8.047   0.210
 1848W        W 9250  14.138   1.403   8.723
 1849W        W 9251  10.281   5.711   0.572
 1850W        W 9252  10.019   9.641   0.699
 1851W        W 9253  17.276   8.958   9.311
 1852W        W 9254  12.892   0.069   1.356
 1853W        W 9255  13.439   6.354   2.192
 1854W        W 9256   1.602   6.385   8.802
 1855W        W 9257   2.953   6.036   0.687
 1856W        W 9258   6.565   5.633   0.301
 1857W        W 9259   2.519   5.731   9.701
 1858W        W 9260   0.628   7.724   7.139
 1859W        W 9261   9.005   0.260   1.143
 1860W        W 9262  10.685   3.595   1.879
 1861W        W 9263   7.800   3.860   9.038
 1862W        W 9264   5.219   6.473   7.522
 1863W        W 9265  19.117   1.903   1.604
 1864W        W 9266  18.981   3.295   1.051
 1865W        W 9267  16.992   1.988   8.788
 1866W        W 9268   1.533   5.419   9.602
 1867W        W 9269  10.991   1.617   1.555
 1868W        W 9270  14.576   2.709   0.812
 1869W        W 9271  13.359   9.331   8.637
 1870W        W 9272  14.812   5.468   9.396
 1871W        W 9273  11.913   8.166   9.835
 1872W        W 9274   7.320   7.967   2.080
 1873W        W 9275   2.631   7.124   0.843
 1874W        W 9276  17.938   4.053   9.119
 1875W        W 9277  13.390   4.906   0.162
 1876W        W 9278   0.957   2.956   1.211
 1877W        W 9279   9.897   6.001   7.978
 1878W        W 9280  12.176   2.094   0.200
 1879W        W 9281   1.740   7.242   0.152
 1880W        W 9282   8.662   2.295   0.550
 1881W        W 9283   4.768   9.619   0.502
 1882W        W 9284  13.506   7.909   8.846
 1883W        W 9285   5.762   1.703   0.561
 1884W        W 9286   4.546   4.752   1.376
 1885W        W 9287   4.741   9.555   1.012
 1886W        W 9288   0.121   3.779   8.885
 1887W        W 9289   0.162   7.027   1.520
 1888W        W 9290  10.916   2.448   8.568
 1889W        W 9291  19.063   1.378   0.180
 1890W        W 9292   8.877   0.692   9.082
 1891W        W 9293  13.160   6.935   9.773
 1892W        W 9294  11.098   9.876   1.756
 1893W        W 9295  10.896   2.542   1.996
 1894W        W 9296   0.009   0.858   2.102
 1895W        W 9297   2.306   4.159   0.677
 1896W        W 9298   3.945   4.917   9.417
 1897W        W 9299  13.161   6.947   1.381
 1898W        W 9300  12.959   8.153   2.006
 1899W        W 9301   0.625   8.522   0.782
 1900W        W 9302  14.076   6.660   7.918
 1901W        W 9303   6.113   3.693   2.273
 1902W        W 9304  13.967   9.074   0.861
 1903W        W 9305  11.120   7.991   0.249
 1904W        W 9306  10.412   7.426   8.033
 1905W        W 9307   3.449   1.699   0.204
 1906W        W 9308  10.343   1.241   1.071
 1907W        W 9309  15.398   6.667   0.949
 1908W        W 9310   6.763   6.713   7.738
 1909W        W 9311   8.102   8.773   0.582
 1910W        W 9312   5.522   1.737   1.942
 1911W        W 9313   9.312   3.807   9.330
 1912W        W 9314   0.922   5.345   8.571
 1913W        W 9315  13.541   6.026   8.987
 1914W        W 9316  11.810   8.534   2.255
 1915W        W 9317   3.974   6.914   0.643
 1916W        W 9318   5.466   8.958   8.880
 1917W        W 9319   8.106   3.553   9.916
 1918W        W 9320  15.344   1.549   0.201
 1919W        W 9321  12.781   9.867   2.333
 1920W        W 9322   7.597   8.222   9.009
 1921W        W 9323  11.684   5.183   9.409
 1922W        W 9324   4.024   8.204   0.712
 1923W        W 9325   8.130   5.243   7.602
 1924W        W 9326  10.859   6.574   1.668
 1925W        W 9327  11.712   5.540   7.865
 1926W        W 9328  10.721   9.180   0.747
 1927W        W 9329   8.494   8.618   9.236
 1928W        W 9330  15.607   7.119   1.093
 1929W        W 9331  13.757   0.146   1.148
 1930W        W 9332   7.091   6.528   8.287
 1931W        W 9333   4.698   5.249   9.941
 1932W        W 9334  17.521   6.993   8.439
 1933W        W 9335   7.081   4.788   2.773
 1934W        W 9336   2.576   2.133   7.878
 1935W        W 9337   6.109   5.628   0.071
 1936W        W 9338  13.143   6.647   7.972
 1937W        W 9339  10.986   4.179   8.233
 1938W        W 9340   0.708   7.110   0.299
 1939W        W 9341  18.281   5.487   8.601
 1940W        W 9342  18.470   9.509   9.311
 1941W        W 9343   3.063   7.601   8.831
 1942W        W 9344   9.421   6.004   1.550
 1943W        W 9345  15.888   7.535   1.263
 1944W        W 9346   8.404   1.818   1.758
 1945W        W 9347   0.551   9.960   2.299
 1946W        W 9348  17.134   7.071   1.402
 1947W        W 9349   9.259   2.586   8.083
 1948W        W 9350   8.786   9.038   2.206
 1949W        W 9351   4.666   1.272   1.358
 1950W        W 9352  19.326   2.838   1.752
 1951W        W 9353  11.931   5.777   1.952
 1952W        W 9354   4.599   8.254   9.827
 1953W        W 9355  12.487   4.381   0.947
 1954W        W 9356   3.771   4.332   2.386
 1955W        W 9357  12.243   6.201   2.068
 1956W        W 9358  18.763   8.256   0.392
 1957W        W 9359  13.279   4.961   8.109
 1958W        W 9360   5.726   5.291   0.247
 1959W        W 9361  18.257   0.745   8.841
 1960W        W 9362  16.012   1.160   8.137
 1961W        W 9363  14.895   4.352   1.655
 1962W        W 9364  15.756   0.727   0.654
 1963W        W 9365  18.922   8.329   1.210
 1964W        W 9366  11.655   2.243   0.184
 1965W        W 9367   0.199   6.366   0.110
 1966W        W 9368   6.509   9.937   8.962
 1967W        W 9369   2.131   2.803   1.934
 1968W        W 9370   2.033   7.860   2.100
 1969W        W 9371  19.272   1.875   0.691
 1970W        W 9372   9.844   5.105   1.207
 1971W        W 9373  16.454   1.250   0.946
 1972W        W 9374  18.705   7.625   2.290
 1973W        W 9375   9.385   9.055   8.615
 1974W        W 9376  10.222   7.064   1.745
 1975W        W 9377  16.926   8.595   9.249
 1976W        W 9378   0.633   7.876   1.925
 1977W        W 9379   1.430   5.052   1.121
 1978W        W 9380  14.442   6.873   9.499
 1979W        W 9381   4.243   5.401   8.574
 1980W        W 9382   2.159   0.030   0.799
 1981W        W 9383  11.180   2.420   0.199
 1982W        W 9384   5.074   6.984   9.882
 1983W        W 9385  14.371   2.252   8.122
 1984W        W 9386  10.861   8.444   0.297
 1985W        W 9387   9.415   3.160   1.582
 1986W        W 9388  10.161   0.312   2.674
 1987W        W 9389   9.350   8.430   9.964
 1988W        W 9390  15.833   9.945   0.534
 1989W        W 9391  18.519   2.310   0.927
 1990W        W 9392  10.791   5.366   8.819
 1991W        W 9393   4.334   3.097   8.034
 1992W        W 9394  17.355   3.375   1.666
 1993W        W 9395  13.179   1.789   9.742
 1994W        W 9396  15.430   8.434   2.343
 1995W        W 9397   0.440   9.970   1.337
 1996W        W 9398  13.591   1.580   1.710
 1997W        W 9399   9.356   0.267   1.526
 1998W        W 9400  12.876   9.588   0.541
 1999W        W 9401  15.489   4.832   2.131
 2000W        W 9402  16.507   8.118   8.275
 2001W        W 9403  19.496   1.437   0.464
 2002W        W 9404   8.240   6.022   2.314
 2003W        W 9405   6.219   4.669   9.648
 2004W        W 9406   0.243   8.270   9.718
 2005W        W 9407   9.337   5.814   9.191
 2006W        W 9408  10.130   2.889   0.736
 2007W        W 9409  17.066   9.103   9.774
 2008W        W 9410   7.885   5.776   9.918
 2009W        W 9411  18.340   0.417   2.053
 2010W        W 9412  18.758   5.456   9.377
 2011W        W 9413   1.625   1.738   0.898
 2012W        W 9414   3.889   0.015   0.307
 2013W        W 9415   6.852   4.422   0.952
 2014W        W 9416  16.008   5.888   9.250
 2015W        W 9417  19.485   5.930   0.256
 2016W        W 9418  10.950   0.728   2.380
 2017W        W 9419   4.633   1.735   2.134
 2018W        W 9420  14.353   7.034   7.727
 2019W        W 9421   3.339   0.166   2.117
 2020W        W 9422   4.608   4.263   1.204
 2021W        W 9423  17.071   1.221   8.381
 2022W        W 9424   2.792   2.237   8.943
 2023W        W 9425  12.439   7.416   8.953
 2024W        W 9426   4.599   4.397   1.749
 2025W        W 9427   0.399   0.621   0.128
 2026W        W 9428  16.230   9.931   0.202
 2027W        W 9429  13.983   1.357   7.790
 2028W        W 9430   2.815   0.208   9.337
 2029W        W 9431  12.657   6.812   9.704
 2030W        W 9432   6.302   4.579   0.638
 2031W        W 9433  10.543   8.684   7.697
 2032W        W 9434  13.807   0.180   1.659
 2033W        W 9435   5.816   0.970   2.129
 2034W        W 9436  12.167   4.936   1.513
 2035W        W 9437   3.229   1.980   1.564
 2036W        W 9438  14.126   6.679   9.119
 2037W        W 9439  15.248   8.413   9.864
 2038W        W 9440   0.963   1.131   8.616
 2039W        W 9441   0.217   1.160   7.940
 2040W        W 9442   2.463   7.463   1.298
 2041W        W 9443  12.870   3.052   2.207
 2042W        W 9444   4.458   2.254   0.763
 2043W        W 9445  15.264   1.440   1.188
 2044W        W 9446  13.476   6.548   8.929
 2045W        W 9447  16.261   4.848   7.937
 2046W        W 9448  19.602   9.671   1.611
 2047W        W 9449  18.619   6.725   2.190
 2048W        W 9450   7.046   1.141   1.376
 2049W        W 9451  13.062   4.271   8.730
 2050W        W 9452  19.329   0.966   2.460
 2051W        W 9453  17.730   9.369   0.970
 2052W        W 9454   2.754   8.028   0.410
 2053W        W 9455   3.522   8.299   0.658
 2054W        W 9456  17.304   5.826   7.941
 2055W        W 9457  15.347   9.957   2.210
 2056W        W 9458   5.512   6.482   9.082
 2057W        W 9459   5.486   7.955   9.765
 2058W        W 9460   7.714   7.894   0.825
 2059W        W 9461  14.199   0.437   1.165
 2060W        W 9462  14.043   0.086   7.653
 2061W        W 9463   2.420   9.367   1.420
 2062W        W 9464   1.843   2.613   7.836
 2063W        W 9465   8.616   1.781   9.388
 2064W        W 9466  14.667   4.268   2.312
 2065W        W 9467  12.959   2.573   0.403
 2066W        W 9468   3.392   8.748   0.389
 2067W        W 9469   5.829   2.790   1.181
 2068W        W 9470   1.790   0.122   8.111
 2069W        W 9471  16.788   1.872   2.427
 2070W        W 9472  16.778   6.562   9.831
 2071W        W 9473   6.202   0.186   7.663
 2072W        W 9474  15.091   7.236   8.397
 2073W        W 9475   7.759   3.830   8.036
 2074W        W 9476  14.994   1.149   8.220
 2075W        W 9477  15.023   7.711   1.554
 2076W        W 9478   1.784   1.238   9.729
 2077W        W 9479  18.342   7.654   7.723
 2078W        W 9480  17.856   3.788   0.790
 2079W        W 9481   0.405   4.087   1.417
 2080W        W 9482   4.813   2.105   1.334
 2081W        W 9483   5.711   6.299   1.647
 2082W        W 9484  19.956   6.355   8.592
 2083W        W 9485  14.392   0.433   8.404
 2084W        W 9486  13.115   7.849   0.138
 2085W        W 9487  10.528   5.607   0.115
 2086W        W 9488  14.504   7.465   8.900
 2087W        W 9489  13.532   5.402   9.518
 2088W        W 9490  14.339   0.287   8.927
 2089W        W 9491  12.018   4.217   7.788
 2090W        W 9492  14.939   6.751   0.467
 2091W        W 9493  15.031   7.039   1.125
 2092W        W 9494   6.960   8.080   0.918
 2093W        W 9495  19.108   8.458   0.739
 2094W        W 9496  15.886   9.376   8.138
 2095W        W 9497   1.647   5.039   1.601
 2096W        W 9498  19.973   4.365   1.445
 2097W        W 9499  10.362   5.086   8.890
 2098W        W 9500   8.002   5.687   0.503
 2099W        W 9501  18.896   2.557   1.816
 2100W        W 9502   3.067   4.734   8.078
 2101W        W 9503   4.582   2.537   8.262
 2102W        W 9504   4.230   5.957   8.549
 2103W        W 9505   1.817   0.341   0.559
 2104W        W 9506  16.719   6.958   2.212
 2105W        W 9507  10.774   1.227   1.879
 2106W        W 9508   6.083   9.672   8.938
 2107W        W 9509  17.136   1.431   1.519
 2108W        W 9510   1.454   5.378   0.296
 2109W        W 9511   3.687   6.395   1.546
 2110W        W 9512  16.078   2.167   2.086
 2111W        W 9513  17.788   7.678   9.576
 2112W        W 9514   3.762   5.871   9.438
 2113W        W 9515   2.450   5.331   0.324
 2114W        W 9516   8.844   7.855   8.430
 2115W        W 9517  14.019   6.620   2.283
 2116W        W 9518   9.766   5.196   0.325
 2117W        W 9519  11.316   4.420   7.941
 2118W        W 9520   6.135   6.407   9.231
 2119W        W 9521  18.795   2.500   8.689
 2120W        W 9522   3.163   3.669   2.412
 2121W        W 9523  19.667   5.571   8.774
 2122W        W 9524  17.690   6.047   9.745
 2123W        W 9525  15.037   5.804   9.063
 2124W        W 9526  18.003   2.074   9.466
 2125W        W 9527   4.407   8.590   1.554
 2126W        W 9528  14.348   1.753   7.839
 2127W        W 9529  19.446   7.196   2.090
 2128W        W 9530  16.218   8.613   0.900
 2129W        W 9531  10.605   7.878   1.084
 2130W        W 9532  12.374   8.169   1.242
 2131W        W 9533   3.666   0.964   2.283
 2132W        W 9534  16.388   2.554   7.717
 2133W        W 9535   6.137   3.041   8.166
 2134W        W 9536  11.478   3.857   8.647
 2135W        W 9537   7.064   5.102   8.677
 2136W        W 9538  18.864   6.489   7.690
 2137W        W 9539   0.125   7.895   7.913
 2138W        W 9540  12.670   7.789   1.088
 2139W        W 9541  18.581   1.421   9.495
 2140W        W 9542  11.843   4.017   1.995
 2141W        W 9543  15.098   7.928   1.107
 2142W        W 9544  17.375   7.211   8.879
 2143W        W 9545   2.074   5.999   9.707
 2144W        W 9546   7.297   3.687   9.274
 2145W        W 9547  10.404   3.992   0.481
 2146W        W 9548   7.630   8.809   0.290
 2147W        W 9549  18.454   6.177   0.895
 2148W        W 9550  12.959   6.550   2.318
 2149W        W 9551   6.074   3.246   1.325
 2150W        W 9552  15.389   6.631   9.550
 2151W        W 9553   0.779   5.839   0.127
 2152W        W 9554  14.966   4.830   0.008
 2153W        W 9555   6.320   8.562   9.167
 2154W        W 9556  16.714   4.759   0.771
 2155W        W 9557   1.411   9.048   9.587
 2156W        W 9558   7.251   3.447   8.717
 2157W        W 9559  17.978   6.804   8.563
 2158W        W 9560  13.752   1.835   1.291
 2159W        W 9561   4.249   7.226   9.010
 2160W        W 9562   4.749   8.239   1.752
 2161W        W 9563   6.849   2.332   1.864
 2162W        W 9564  16.541   8.734   0.521
 2163W        W 9565   7.491   6.843   8.802
 2164W        W 9566  13.885   4.976   9.893
 2165W        W 9567   9.866   0.938   7.745
 2166W        W 9568  18.141   9.937   9.293
 2167W        W 9569   4.186   6.293   1.537
 2168W        W 9570  17.628   4.492   1.340
 2169W        W 9571  12.917   4.341   9.230
 2170W        W 9572   5.980   0.399   0.846
 2171W        W 9573  14.106   4.613   1.270
 2172W        W 9574   1.030   8.218   7.750
 2173W        W 9575   3.076   5.206   8.248
 2174W        W 9576  12.074   7.222   0.574
 2175W        W 9577   5.386   4.647   1.135
 2176W        W 9578   6.987   1.165   8.709
 2177W        W 9579   6.183   7.588   0.878
 2178W        W 9580  11.844   1.695   0.959
 2179W        W 9581   7.699   0.671   1.015
 2180W        W 9582  18.186   6.376   0.468
 2181W        W 9583  17.131   5.208   1.459
 2182W        W 9584  15.663   0.654   1.563
 2183W        W 9585  11.341   1.351   8.049
 2184W        W 9586   2.906   2.543   0.228
 2185W        W 9587  15.791   3.139   9.593
 2186W        W 9588   1.247   2.128   1.043
 2187W        W 9589  19.960   1.672   1.773
 2188W        W 9590  11.083   1.154   9.234
 2189W        W 9591  14.523   1.316   8.374
 2190W        W 9592   1.944   3.249   2.004
 2191W        W 9593  11.681   7.822   8.993
 2192W        W 9594   1.147   6.625   1.172
 2193W        W 9595   8.745   9.858   1.323
 2194W        W 9596  11.817   4.544   8.135
 2195W        W 9597  12.876   7.156   8.023
 2196W        W 9598   0.393   1.393   1.691
 2197W        W 9599   1.499   8.799   8.763
 2198W        W 9600   8.727   9.446   9.242
 2199W        W 9601  15.806   6.397   8.659
 2200W        W 9602   4.435   7.380   2.089
 2201W        W 9603  15.964   9.005   8.490
 2202W        W 9604  14.491   0.478   2.436
 2203W        W 9605   9.039   5.844   1.196
 2204W        W 9606   5.724   0.268   9.793
 2205W        W 9607  16.531   2.064   0.457
 2206W        W 9608   2.556   1.370   0.863
 2207W        W 9609   0.193   9.259   1.168
 2208W        W 9610  19.765   0.985   1.199
 2209W        W 9611  18.931   5.075   9.079
 2210W        W 9612  10.098   6.041   0.933
 2211W        W 9613   9.389   4.111   1.098
 2212W        W 9614  15.180   9.016   1.841
 2213W        W 9615  13.438   3.229   1.091
 2214W        W 9616  19.734   0.601   8.909
 2215W        W 9617   4.618   1.180   8.599
 2216W        W 9618  14.251   3.573   9.737
 2217W        W 9619  11.579   0.419   9.568
 2218W        W 9620   5.569   3.232   1.290
 2219W        W 9621   4.792   5.758   7.768
 2220W        W 9622  15.104   4.031   8.193
 2221W        W 9623  12.434   2.904   0.499
 2222W        W 9624   1.879   7.983   8.222
 2223W        W 9625   6.459   0.551   9.117
 2224W        W 9626   6.527   5.242   1.263
 2225W        W 9627   6.357   6.289   8.250
 2226W        W 9628   7.097   6.974   8.019
 2227W        W 9629   7.027   3.599   9.719
 2228W        W 9630  10.955   2.076   2.287
 2229W        W 9631  18.563   2.264   0.400
 2230W        W 9632   8.316   9.606   7.887
 2231W        W 9633  14.798   3.617   0.679
 2232W        W 9634  17.402   2.870   1.782
 2233W        W 9635   7.180   8.435   9.251
 2234W        W 9636  14.279   1.783   8.357
 2235W        W 9637   0.427   5.808   7.830
 2236W        W 9638  14.636   0.717   8.981
 2237W        W 9639  11.622   7.741   1.112
 2238W        W 9640   5.537   1.021   7.607
 2239W        W 9641   7.437   1.436   9.963
 2240W        W 9642   4.782   4.087   2.109
 2241W        W 9643   9.413   3.643   1.874
 2242W        W 9644  15.730   3.216   7.841
 2243W        W 9645  17.433   4.260   1.774
 2244W        W 9646  18.365   6.760   8.248
 2245W        W 9647  16.050   8.849   1.854
 2246W        W 9648   2.334   5.284   1.553
 2247W        W 9649   3.955   2.339   9.816
 2248W        W 9650  15.301   9.994   1.691
 2249W        W 9651  10.970   2.756   0.541
 2250W        W 9652   5.775   8.471   0.448
 2251W        W 9653  14.635   3.141   0.535
 2252W        W 9654   0.883   2.944   8.267
 2253W        W 9655   5.996   5.360   1.470
 2254W        W 9656   4.454   0.010   0.359
 2255W        W 9657  19.246   3.762   9.338
 2256W        W 9658   8.356   7.691   7.616
 2257W        W 9659   9.924   1.548   2.344
 2258W        W 9660   9.031   2.302   0.203
 2259W        W 9661   0.429   6.254   9.483
 2260W        W 9662  16.060   8.373   1.639
 2261W        W 9663   5.619   9.612   8.027
 2262W        W 9664  17.089   0.408   1.688
 2263W        W 9665  10.852   7.375   8.879
 2264W        W 9666  19.755   2.054   9.406
 2265W        W 9667   5.012   9.307   8.813
 2266W        W 9668   4.689   6.086   8.145
 2267W        W 9669  10.700   3.017   1.406
 2268W        W 9670  16.493   2.284   2.423
 2269W        W 9671  17.926   8.915   1.184
 2270W        W 9672  18.949   9.669   7.694
 2271W        W 9673   8.537   7.876   2.191
 2272W        W 9674  12.753   3.767   8.101
 2273W        W 9675  13.153   4.509   7.963
 2274W        W 9676   8.397   8.573   1.061
 2275W        W 9677  13.908   3.816   2.273
 2276W        W 9678   7.851   3.850   0.241
 2277W        W 9679  13.572   3.677   0.187
 2278W        W 9680  18.023   4.938   0.567
 2279W        W 9681  17.084   6.537   9.417
 2280W        W 9682  12.941   1.736   9.270
 2281W        W 9683  12.645   9.889   8.755
 2282W        W 9684  15.860   6.987   8.958
 2283W        W 9685  15.454   3.077   2.256
 2284W        W 9686  19.841   3.031   2.098
 2285W        W 9687  17.738   7.881   0.038
 2286W        W 9688   4.894   2.124   2.346
 2287W        W 9689  16.543   2.978   7.060
 2288W        W 9690  14.025   0.420   9.761
 2289W        W 9691  12.563   1.329   9.833
 2290W        W 9692   4.746   4.025   0.274
 2291W        W 9693  17.608   3.562   0.402
 2292W        W 9694   6.141   2.647   8.786
 2293W        W 9695  11.616   9.717   8.287
 2294W        W 9696  14.013   2.875   9.694
 2295W        W 9697   2.988   7.026   9.623
 2296W        W 9698   0.656   7.907   1.415
 2297W        W 9699   6.255   3.448   9.147
 2298W        W 9700   7.506   0.818   2.018
 2299W        W 9701  13.004   8.338   0.314
 2300W        W 9702  14.588   7.616   1.805
 2301W        W 9703  15.905   9.478   8.644
 2302W        W 9704   4.302   3.334   9.682
 2303W        W 9705  12.182   1.259   1.275
 2304W        W 9706   0.522   7.607   0.425
 2305W        W 9707  19.269   5.470   2.407
 2306W        W 9708  12.705   6.982   2.142
 2307W        W 9709   5.391   2.545   0.782
 2308W        W 9710  17.244   6.169   0.376
 2309W        W 9711   5.104   5.435   1.681
 2310W        W 9712  15.386   6.983   8.747
 2311W        W 9713   0.056   1.579   7.707
 2312W        W 9714   8.285   9.068   0.987
 2313W        W 9715  14.638   2.998   1.542
 2314W        W 9716   0.073   7.083   8.496
 2315W        W 9717   7.801   5.472   1.163
 2316W        W 9718   2.251   1.770   0.757
 2317W        W 9719   4.466   2.232   9.873
 2318W        W 9720  16.611   3.866   0.681
 2319W        W 9721  13.847   4.470   8.020
 2320W        W 9722  11.003   5.628   9.206
 2321W        W 9723   5.778   3.103   7.817
 2322W        W 9724   6.513   9.379   0.200
 2323W        W 9725   5.904   8.838   9.106
 2324W        W 9726   1.495   3.477   8.282
 2325W        W 9727  14.941   0.549   9.353
 2326W        W 9728   1.400   2.564   9.094
 2327W        W 9729   6.567   4.365   8.735
 2328W        W 9730  14.856   8.364   1.019
 2329W        W 9731   9.520   2.172   8.810
 2330W        W 9732  12.744   2.602   2.447
 2331W        W 9733  18.806   7.245   0.381
 2332W        W 9734   9.244   5.340   1.140
 2333W        W 9735  15.545   4.047   9.881
 2334W        W 9736   7.358   9.923   8.169
 2335W        W 9737   5.952   8.773   8.020
 2336W        W 9738  12.801   2.670   1.430
 2337W        W 9739  11.855   7.258   9.754
 2338W        W 9740  13.659   9.679   8.872
 2339W        W 9741  12.199   4.813   8.870
 2340W        W 9742   0.981   3.397   8.486
 2341W        W 9743   1.074   7.923   0.167
 2342W        W 9744  14.883   9.934   1.981
 2343W        W 9745  17.759   2.619   0.194
 2344W        W 9746   1.730   6.026   1.966
 2345W        W 9747   8.814   1.749   8.368
 2346W        W 9748   5.090   6.337   9.411
 2347W        W 9749   6.697   6.007   2.402
 2348W        W 9750   4.579   1.275   9.598
 2349W        W 9751   3.342   6.019   1.397
 2350W        W 9752   1.885   8.345   2.250
 2351W        W 9753   1.492   6.366   0.239
 2352W        W 9754   3.553   9.721   9.541
 2353W        W 9755  10.169   6.985   7.983
 2354W        W 9756   4.056   4.744   1.155
 2355W        W 9757  13.444   1.377   9.287
 2356W        W 9758   1.945   9.791   8.851
 2357W        W 9759  16.310   1.602   8.083
 2358W        W 9760  12.628   5.087   9.027
 2359W        W 9761  19.062   4.193   0.549
 2360W        W 9762   4.256   6.892   0.224
 2361W        W 9763  17.594   5.726   2.510
 2362W        W 9764  18.448   8.296   1.660
 2363W        W 9765  18.447   9.181   2.048
 2364W        W 9766  15.062   6.311   0.695
 2365W        W 9767  12.512   7.779   8.568
 2366W        W 9768   3.539   7.222   2.169
 2367W        W 9769   2.321   3.447   8.406
 2368W        W 9770   9.033   8.166   7.668
 2369W        W 9771   5.068   0.386   8.422
 2370W        W 9772  12.555   8.015   8.072
 2371W        W 9773   4.405   5.721   7.422
 2372W        W 9774   3.103   7.905   9.818
 2373W        W 9775  14.541   2.120   0.292
 2374W        W 9776   3.880   1.547   8.504
 2375W        W 9777  19.042   6.793   0.391
 2376W        W 9778   5.033   6.050   8.540
 2377W        W 9779  18.889   4.050   2.208
 2378W        W 9780  13.590   8.530   9.169
 2379W        W 9781  18.881   5.985   0.212
 2380W        W 9782  16.876   4.011   2.418
 2381W        W 9783   9.636   4.745   9.823
 2382W        W 9784  19.279   6.406   9.425
 2383W        W 9785  16.983   9.525   0.372
 2384W        W 9786  16.419   4.036   1.137
 2385W        W 9787   0.684   1.977   9.852
 2386W        W 9788  11.441   1.989   2.107
 2387W        W 9789  10.146   4.705   8.058
 2388W        W 9790  12.345   0.152   2.232
 2389W        W 9791  15.687   0.676   7.953
 2390W        W 9792   0.877   5.775   0.634
 2391W        W 9793  10.621   7.838   8.918
 2392W        W 9794   2.981   5.776   7.444
 2393W        W 9795  19.369   8.937   8.460
 2394W        W 9796   1.138   5.835   1.724
 2395W        W 9797   6.563   2.709   7.839
 2396W        W 9798  16.998   5.655   1.222
 2397W        W 9799  18.208   4.145   0.858
 2398W        W 9800  16.074   4.136   9.029
 2399W        W 9801   6.762   8.793   9.724
 2400W        W 9802   8.433   3.031   8.094
 2401W        W 9803   0.402   1.811   1.304
 2402W        W 9804  18.997   1.423   0.680
 2403W        W 9805   2.668   2.046   0.269
 2404W        W 9806   2.658   9.928   7.649
 2405W        W 9807   3.932   5.137   0.850
 2406W        W 9808  15.492   1.317   9.082
 2407W        W 9809  18.933   4.057   1.244
 2408W        W 9810  14.154   9.333   0.009
 2409W        W 9811  19.094   1.069   1.993
 2410W        W 9812   5.274   9.552   7.655
 2411W        W 9813   3.519   4.674   9.013
 2412W        W 9814   3.025   1.739   1.163
 2413W        W 9815   7.224   0.712   1.588
 2414W        W 9816  16.926   7.402   8.692
 2415W        W 9817  10.632   2.319   9.419
 2416W        W 9818   7.571   4.180   0.538
 2417W        W 9819   0.744   9.937   8.113
 2418W        W 9820  16.047   5.834   2.087
 2419W        W 9821   0.354   9.233   8.673
 2420W        W 9822   3.546   3.996   9.285
 2421W        W 9823   5.477   6.128   8.242
 2422W        W 9824   2.250   8.678   9.944
 2423W        W 9825  18.201   2.989   9.318
 2424W        W 9826  12.958   4.060   0.176
 2425W        W 9827  19.817   8.985   8.731
 2426W        W 9828   7.165   7.714   1.672
 2427W        W 9829  14.241   0.567   0.677
 2428W        W 9830   6.406   4.594   9.154
 2429W        W 9831  18.695   7.411   8.205
 2430W        W 9832  14.512   1.754   8.819
 2431W        W 9833   5.278   9.871   9.253
 2432W        W 9834   8.241   9.769   8.375
 2433W        W 9835  18.831   8.006   0.817
 2434W        W 9836   2.098   0.918   7.869
 2435W        W 9837   2.148   4.630   0.882
 2436W        W 9838   7.869   9.637   9.601
 2437W        W 9839  17.449   9.445   9.189
 2438W        W 9840  11.900   3.529   2.232
 2439W        W 9841  19.196   5.589   9.604
 2440W        W 9842  12.564   3.333   7.940
 2441W        W 9843  16.808   2.332   7.565
 2442W        W 9844  18.031   0.603   0.283
 2443W        W 9845   4.649   9.243   9.620
 2444W        W 9846   6.759   3.112   0.377
 2445W        W 9847  13.179   6.169   8.680
 2446W        W 9848  14.261   0.053   9.464
 2447W        W 9849  16.949   7.233   9.154
 2448W        W 9850   5.392   2.611   8.535
 2449W        W 9851   6.517   9.033   2.253
 2450W        W 9852  19.345   8.640   9.317
 2451W        W 9853   3.458   4.799   1.071
 2452W        W 9854   7.989   4.980   8.929
 2453W        W 9855  11.617   3.881   0.260
 2454W        W 9856   5.075   1.265   8.280
 2455W        W 9857  18.189   5.952   9.713
 2456W        W 9858  19.377   6.547   7.793
 2457W        W 9859   0.772   9.310   1.810
 2458W        W 9860  12.508   4.762   0.553
 2459W        W 9861  10.698   0.354   9.034
 2460W        W 9862   3.883   2.814   8.907
 2461W        W 9863  12.121   2.098   9.313
 2462W        W 9864  18.394   8.559   7.732
 2463W        W 9865   4.002   5.212   2.227
 2464W        W 9866   5.362   0.901   2.389
 2465W        W 9867   9.882   0.157   9.685
 2466W        W 9868   4.542   6.078   9.827
 2467W        W 9869   7.057   6.609   9.316
 2468W        W 9870   6.408   5.435   9.081
 2469W        W 9871  12.425   0.858   1.036
 2470W        W 9872   0.392   1.189   0.859
 2471W        W 9873   8.576   4.992   1.753
 2472W        W 9874  16.953   9.034   1.877
 2473W        W 9875   2.439   1.560   0.337
 2474W        W 9876   0.216   2.738   1.868
 2475W        W 9877  11.018   8.457   1.175
 2476W        W 9878  13.158   6.689   1.854
 2477W        W 9879   8.785   7.396   7.664
 2478W        W 9880  13.429   4.469   8.374
 2479W        W 9881   9.487   9.330   1.438
 2480W        W 9882   6.931   0.688   8.889
 2481W        W 9883   2.663   7.642   9.163
 2482W        W 9884  11.722   1.516   8.871
 2483W        W 9885  14.823   4.507   8.337
 2484W        W 9886  13.440   3.462   0.634
 2485W        W 9887  11.014   3.455   9.420
 2486W        W 9888   7.682   3.180   1.979
 2487W        W 9889  18.788   4.635   8.822
 2488W        W 9890   1.012   4.151   0.286
 2489W        W 9891   3.890   9.875   0.840
 2490W        W 9892   8.078   1.262   8.361
 2491W        W 9893   3.888   0.534   0.355
 2492W        W 9894   3.117   1.951   8.001
 2493W        W 9895   8.577   8.817   0.243
 2494W        W 9896  10.630   1.500   8.788
 2495W        W 9897   9.023   6.169   7.953
 2496W        W 9898   7.668   3.617   2.251
 2497W        W 9899   2.460   3.180   1.763
 2498W        W 9900   1.539   0.941   1.539
 2499W        W 9901   8.309   7.062   1.841
 2500W        W 9902   8.891   0.234   0.619
 2501W        W 9903   7.678   6.803   2.250
 2502W        W 9904  19.323   0.248   7.637
 2503W        W 9905  10.803   9.236   8.414
 2504W        W 9906   4.448   5.951   1.815
 2505W        W 9907  14.046   5.526   1.015
 2506W        W 9908  16.510   0.022   8.188
 2507W        W 9909  11.457   4.685   0.633
 2508W        W 9910   1.247   5.185   7.699
 2509W        W 9911  17.809   7.549   1.018
 2510W        W 9912   3.418   3.497   9.285
 2511W        W 9913  10.202   7.218   2.232
 2512W        W 9914  10.762   4.711   9.955
 2513W        W 9915   5.407   1.496   9.354
 2514W        W 9916   2.704   5.259   7.902
 2515W        W 9917   3.025   6.143   2.150
 2516W        W 9918  12.976   8.638   8.241
 2517W        W 9919   0.621   1.670   0.863
 2518W        W 9920   7.313   8.951   8.495
 2519W        W 9921   9.974   4.756   0.202
 2520W        W 9922  17.506   8.448   8.007
 2521W        W 9923   9.008   9.800   0.867
 2522W        W 9924   4.804   2.574   9.713
 2523W        W 9925  18.175   9.246   8.713
 2524W        W 9926   0.996   3.620   8.958
 2525W        W 9927  15.942   2.403   7.904
 2526W        W 9928  11.358   7.742   0.659
 2527W        W 9929   7.639   8.652   8.747
 2528W        W 9930  11.577   8.734   8.451
 2529W        W 9931   6.648   6.191   0.355
 2530W        W 9932   0.773   5.856   9.614
 2531W        W 9933  10.786   1.204   1.333
 2532W        W 9934   8.192   5.410   9.797
 2533W        W 9935   0.388   5.705   1.460
 2534W        W 9936   5.746   3.274   0.385
 2535W        W 9937  17.581   5.009   0.326
 2536W        W 9938  17.745   0.647   7.592
 2537W        W 9939   3.332   9.208   2.109
 2538W        W 9940   6.186   4.138   0.356
 2539W        W 9941  12.561   9.102   1.048
 2540W        W 9942   9.270   1.764   8.606
 2541W        W 9943  15.294   9.713   7.667
 2542W        W 9944   1.262   7.611   9.796
 2543W        W 9945   4.790   7.278   7.868
 2544W        W 9946  11.236   8.372   1.631
 2545W        W 9947  13.354   9.885   0.965
 2546W        W 9948  15.340   1.916   1.017
 2547W        W 9949   6.614   7.092   0.219
 2548W        W 9950  11.045   5.114   9.751
 2549W        W 9951   5.232   3.943   2.325
 2550W        W 9952   0.840   8.491   1.245
 2551W        W 9953  13.312   2.512   0.788
 2552W        W 9954  10.378   3.921   8.352
 2553W        W 9955  14.619   1.027   9.395
 2554W        W 9956   2.789   2.134   8.360
 2555W        W 9957   9.020   0.879   9.960
 2556W        W 9958   2.973   5.687   1.565
 2557W        W 9959  12.607   7.489   2.288
 2558W        W 9960  18.010   1.216   8.838
 2559W        W 9961   0.713   2.158   0.958
 2560W        W 9962  11.249   4.287   0.358
 2561W        W 9963  18.913   0.359   9.842
 2562W        W 9964  15.039   1.965   0.277
 2563W        W 9965  16.222   0.291   1.303
 2564W        W 9966   0.131   1.794   0.862
 2565W        W 9967   7.123   7.097   9.558
 2566W        W 9968   6.218   4.125   0.854
 2567W        W 9969  19.483   5.752   1.994
 2568W        W 9970  15.808   7.091   2.595
 2569W        W 9971   2.279   1.310   1.326
 2570W        W 9972  12.293   4.843   1.022
 2571W        W 9973  13.088   0.236   8.562
 2572W        W 9974   7.957   6.981   8.482
 2573W        W 9975   5.765   8.637   0.933
 2574W        W 9976  14.909   0.361   8.235
 2575W        W 9977  12.835   4.492   7.523
 2576W        W 9978  11.917   3.018   9.302
 2577W        W 9979  15.328   7.306   1.469
 2578W        W 9980  13.664   9.066   0.434
 2579W        W 9981   2.667   0.893   9.595
 2580W        W 9982  11.937   8.260   8.856
 2581W        W 9983  10.604   0.725   0.038
 2582W        W 9984  16.628   2.560   1.479
 2583W        W 9985  17.498   5.733   2.018
 2584W        W 9986  13.362   3.514   9.760
 2585W        W 9987   2.799   4.471   2.049
 2586W        W 9988   6.625   6.383   9.626
 2587W        W 9989  14.846   1.621   8.075
 2588W        W 9990   6.454   3.001   8.994
 2589W        W 9991   5.263   3.912   0.848
 2590W        W 9992   7.727   3.139   1.469
 2591W        W 9993  13.438   6.716   9.412
 2592W        W 9994  19.866   0.589   9.947
 2593W        W 9995   9.527   6.738   1.097
 2594W        W 9996   9.508   1.240   7.959
 2595W        W 9997   8.928   7.862   8.954
 2596W        W 9998   6.412   3.928   8.013
 2597W        W 9999   5.585   6.138   7.629
 2598W        W10000   9.876   7.995   1.691
 2599W        W10001   2.311   9.166   0.434
 2600W        W10002  10.625   8.388   9.412
 2601W        W10003  18.113   2.002   2.415
 2602W        W10004  16.564   2.922   2.745
 2603W        W10005   4.369   2.592   9.444
 2604W        W10006  16.542   7.517   1.801
 2605W        W10007   8.812   5.998   9.896
 2606W        W10008   5.428   8.132   9.267
 2607W        W10009   1.166   1.807   9.709
 2608W        W10010   0.801   6.625   8.440
 2609W        W10011   5.686   9.784   0.264
 2610W        W10012   4.841   3.777   1.110
 2611W        W10013   2.286   2.664   2.437
 2612W        W10014  17.214   1.756   1.015
 2613W        W10015   8.965   5.113   9.718
 2614W        W10016   1.091   4.096   1.123
 2615W        W10017  18.079   4.160   8.578
 2616W        W10018  16.774   6.226   0.193
 2617W        W10019  14.917   6.552   1.135
 2618W        W10020   5.073   2.585   8.147
 2619W        W10021   5.327   0.837   8.443
 2620W        W10022   5.646   3.831   2.031
 2621W        W10023  15.662   7.431   0.663
 2622W        W10024   4.261   7.718   9.099
 2623W        W10025   6.381   9.002   9.429
 2624W        W10026   2.078   2.609   9.865
 2625W        W10027   3.714   3.380   0.910
 2626W        W10028   0.224   9.856   8.140
 2627W        W10029  14.513   5.910   8.792
 2628W        W10030   3.123   8.987   1.260
 2629W        W10031   0.500   6.134   2.121
 2630W        W10032   6.855   2.984   1.391
 2631W        W10033   1.002   3.850   0.703
 2632W        W10034  19.638   5.416   0.225
 2633W        W10035   1.658   0.742   9.839
 2634W        W10036   6.648   6.203   9.133
 2635W        W10037   5.602   7.690   0.749
 2636W        W10038   1.733   8.374   8.569
 2637W        W10039   2.813   9.527   0.189
 2638W        W10040  11.595   2.482   2.057
 2639W        W10041   2.369   6.638   2.431
 2640W        W10042  10.662   2.099   8.249
 2641W        W10043  15.927   1.196   0.883
 2642W        W10044  18.857   8.538   9.095
 2643W        W10045   7.238   1.531   8.970
 2644W        W10046  17.399   5.609   9.666
 2645W        W10047   9.836   8.889   8.441
 2646W        W10048  18.337   5.586   0.058
 2647W        W10049  12.112   4.063   0.305
 2648W        W10050   5.876   9.240   8.768
 2649W        W10051   8.659   2.235   8.526
 2650W        W10052   9.070   3.517   9.708
 2651W        W10053   3.864   1.969   0.643
 2652W        W10054  19.149   6.595   7.273
 2653W        W10055   4.131   7.122   8.274
 2654W        W10056  10.582   1.572   7.694
 2655W        W10057   9.686   6.182   9.298
 2656W        W10058   3.148   7.034   2.422
 2657W        W10059   1.823   3.830   1.629
 2658W        W10060  19.220   6.039   8.895
 2659W        W10061  15.287   8.715   9.271
 2660W        W10062   8.439   9.437   1.320
 2661W        W10063   4.721   6.990   1.197
 2662W        W10064  12.775   8.813   0.155
 2663W        W10065   0.920   0.435   9.360
 2664W        W10066   4.489   5.889   0.689
 2665W        W10067   3.895   3.523   8.503
 2666W        W10068   1.295   0.046   1.912
 2667W        W10069  19.296   9.521   7.273
 2668W        W10070   7.018   4.755   2.268
 2669W        W10071   4.253   6.621   2.400
 2670W        W10072   7.447   9.481   9.206
 2671W        W10073   4.900   3.645   0.585
 2672W        W10074  18.232   8.999   1.592
 2673W        W10075  11.729   1.727   0.156
 2674W        W10076   0.465   2.299   1.459
 2675W        W10077   1.067   6.718   8.968
 2676W        W10078   1.502   3.503   8.819
 2677W        W10079  10.879   8.288   2.006
 2678W        W10080  17.441   5.987   9.320
 2679W        W10081  15.023   4.515   9.435
 2680W        W10082  16.153   4.862   9.953
 2681W        W10083   1.825   6.850   7.681
 2682W        W10084   1.235   4.981   0.545
 2683W        W10085  18.053   0.932   9.278
 2684W        W10086   0.305   9.524   7.707
 2685W        W10087  16.152   9.285   2.128
 2686W        W10088  10.222   0.580   9.058
 2687W        W10089   8.906   5.189   9.219
 2688W        W10090   8.885   1.162   8.903
 2689W        W10091   7.571   0.051   9.822
 2690W        W10092  16.188   0.756   7.842
 2691W        W10093   7.937   1.813   0.791
 2692W        W10094  10.263   3.688   1.306
 2693W        W10095  16.964   7.836   8.425
 2694W        W10096  16.091   4.533   9.400
 2695W        W10097  17.812   7.772   8.551
 2696W        W10098   6.876   3.187   1.921
 2697W        W10099   6.732   8.325   9.500
 2698W        W10100   8.167   0.081   9.392
 2699W        W10101  16.281   3.342   8.035
 2700W        W10102   7.971   9.251   7.694
 2701W        W10103  17.320   2.545   8.409
 2702W        W10104   6.302   1.155   0.108
 2703W        W10105  19.149   7.729   9.300
 2704W        W10106   7.800   6.937   1.230
 2705W        W10107  19.832   8.057   9.926
 2706W        W10108   7.890   2.906   0.438
 2707W        W10109  18.274   3.334   1.612
 2708W        W10110   9.470   1.047   0.669
 2709W        W10111   3.933   2.618   0.294
 2710W        W10112   5.812   3.010   1.722
 2711W        W10113   7.044   2.286   9.711
 2712W        W10114   6.132   7.002   0.044
 2713W        W10115   3.349   5.868   1.882
 2714W        W10116   9.189   3.299   9.275
 2715W        W10117  16.023   8.701   8.897
 2716W        W10118  18.967   8.195   9.462
 2717W        W10119   5.606   9.601   2.391
 2718W        W10120   5.695   9.063   1.187
 2719W        W10121  19.020   9.058   9.981
 2720W        W10122  14.674   8.679   0.667
 2721W        W10123   2.203   0.472   8.124
 2722W        W10124   1.682   9.718   2.007
 2723W        W10125   5.696   7.153   2.507
 2724W        W10126   7.137   5.570   9.003
 2725W        W10127  17.365   9.387   8.353
 2726W        W10128   8.331   5.885   9.668
 2727W        W10129  13.844   2.946   2.025
 2728W        W10130   2.927   0.708   8.160
 2729W        W10131  13.301   3.481   1.496
 2730W        W10132   2.257   5.193   7.682
 2731W        W10133  14.995   3.429   0.249
 2732W        W10134  16.077   3.057   1.884
 2733W        W10135   6.755   6.170   1.528
 2734W        W10136  18.016   6.726   9.301
 2735W        W10137   2.313   6.668   8.412
 2736W        W10138  12.088   1.684   0.508
 2737W        W10139   6.399   7.833   2.153
 2738W        W10140  15.789   7.096   1.567
 2739W        W10141   9.838   1.043   2.230
 2740W        W10142   1.346   3.026   8.490
 2741W        W10143   4.276   7.792   1.844
 2742W        W10144   2.432   9.664   8.732
 2743W        W10145   6.180   5.001   8.875
 2744W        W10146  10.202   3.544   2.049
 2745W        W10147   2.958   3.570   0.438
 2746W        W10148   8.499   2.724   1.296
 2747W        W10149  16.962   9.389   9.327
 2748W        W10150   2.685   1.645   7.822
 2749W        W10151  18.105   5.791   0.794
 2750W        W10152   4.427   0.860   1.537
 2751W        W10153   2.153   7.460   9.941
 2752W        W10154  13.663   1.727   9.585
 2753W        W10155   7.464   6.397   9.062
 2754W        W10156  12.552   1.371   2.086
 2755W        W10157  11.182   2.879   8.605
 2756W        W10158   1.709   2.116   1.280
 2757W        W10159   2.674   0.098   0.680
 2758W        W10160   8.841   1.319   8.039
 2759W        W10161   2.792   6.136   7.736
 2760W        W10162   9.611   9.961   8.457
 2761W        W10163  11.316   8.521   2.125
 2762W        W10164   8.182   3.951   1.840
 2763W        W10165   5.347   0.832   1.391
 2764W        W10166  13.607   2.967   0.668
 2765W        W10167  17.119   3.679   7.656
 2766W        W10168  18.934   5.114   8.046
 2767W        W10169  17.846   8.773   0.198
 2768W        W10170   5.820   0.807   1.613
 2769W        W10171   7.612   9.119   8.023
 2770W        W10172  10.392   2.238   0.076
 2771W        W10173   2.839   5.079   8.707
 2772W        W10174   5.077   8.789   8.602
 2773W        W10175   7.247   3.140   2.300
 2774W        W10176   8.986   2.063   8.911
 2775W        W10177  13.238   2.517   2.537
 2776W        W10178   4.862   8.301   8.530
 2777W        W10179   9.079   1.003   9.419
 2778W        W10180   0.677   2.047   2.326
 2779W        W10181   7.814   5.344   0.165
 2780W        W10182  13.426   8.896   1.409
 2781W        W10183  15.051   4.410   0.346
 2782W        W10184   1.570   1.966   2.014
 2783W        W10185  10.455   5.107   8.044
 2784W        W10186  16.165   5.446   1.251
 2785W        W10187  13.493   0.553   2.449
 2786W        W10188  18.130   9.338   9.654
 2787W        W10189  14.937   3.126   9.354
 2788W        W10190  10.675   5.436   1.774
 2789W        W10191  12.528   9.068   2.311
 2790W        W10192  11.667   2.026   0.627
 2791W        W10193  13.379   4.429   7.520
 2792W        W10194  18.827   4.917   1.640
 2793W        W10195  11.229   1.176   1.078
 2794W        W10196  18.296   0.300   1.079
 2795W        W10197   4.748   2.277   0.345
 2796W        W10198  16.124   7.311   0.845
 2797W        W10199   8.390   1.053   7.996
 2798W        W10200   1.249   5.006   9.451
 2799W        W10201  18.092   1.411   0.164
 2800W        W10202  19.256   7.878   7.678
 2801W        W10203   1.053   3.899   9.408
 2802W        W10204   0.463   2.366   0.113
 2803W        W10205   1.075   9.408   0.919
 2804W        W10206   0.443   4.138   7.511
 2805W        W10207   5.430   7.998   8.751
 2806W        W10208   7.540   7.319   9.033
 2807W        W10209   2.675   0.431   9.818
 2808W        W10210   8.745   3.477   8.945
 2809W        W10211   5.877   4.763   7.177
 2810W        W10212  17.122   4.866   8.594
 2811W        W10213  10.855   4.341   1.857
 2812W        W10214  17.406   2.531   9.338
 2813W        W10215   9.530   8.876   1.708
 2814W        W10216   2.787   1.152   0.467
 2815W        W10217   4.574   1.677   7.957
 2816W        W10218  12.034   3.914   9.353
 2817W        W10219   4.962   7.983   9.576
 2818W        W10220  14.169   9.715   8.496
 2819W        W10221   3.885   0.815   2.720
 2820W        W10222  13.834   3.111   8.431
 2821W        W10223  11.285   4.771   1.149
 2822W        W10224   9.919   3.366   0.876
 2823W        W10225   7.556   2.343   2.487
 2824W        W10226   8.758   5.555   8.531
 2825W        W10227   1.668   9.847   0.663
 2826W        W10228   2.523   6.229   2.164
 2827W        W10229  19.089   3.707   1.589
 2828W        W10230  18.403   9.838   7.752
 2829W        W10231   8.505   5.312   8.139
 2830W        W10232  11.237   0.506   8.092
 2831W        W10233   3.129   3.856   9.554
 2832W        W10234  10.217   3.309   0.444
 2833W        W10235   4.170   4.357   1.473
 2834W        W10236  12.460   7.365   0.302
 2835W        W10237  11.088   6.932   8.895
 2836W        W10238   1.391   4.595   1.592
 2837W        W10239  10.533   4.019   1.596
 2838W        W10240  16.728   9.083   0.181
 2839W        W10241  14.966   8.327   9.434
 2840W        W10242  14.633   7.187   9.875
 2841W        W10243  12.334   0.610   2.479
 2842W        W10244   6.313   8.977   9.931
 2843W        W10245   0.536   4.650   2.129
 2844W        W10246  14.987   5.702   0.288
 2845W        W10247  11.338   3.371   8.550
 2846W        W10248   3.346   5.002   8.674
 2847W        W10249   4.233   5.148   9.048
 2848W        W10250  12.152   7.722   1.088
 2849W        W10251  17.124   4.996   0.557
 2850W        W10252   8.817   6.970   7.942
 2851W        W10253   0.572   2.631   1.080
 2852W        W10254   7.940   5.615   8.851
 2853W        W10255   8.421   9.672   9.597
 2854W        W10256   1.690   4.721   8.444
 2855W        W10257   3.369   2.780   8.910
 2856W        W10258  17.795   7.677   9.053
 2857W        W10259   9.831   4.450   1.812
 2858W        W10260  17.375   7.577   0.243
 2859W        W10261  16.040   7.593   8.252
 2860W        W10262  10.331   7.384   8.870
 2861W        W10263  16.090   2.876   8.037
 2862W        W10264   7.012   5.576   8.511
 2863W        W10265  13.983   1.908   8.810
 2864W        W10266  10.612   7.570   8.471
 2865W        W10267  17.509   5.046   7.874
 2866W        W10268   5.837   0.890   8.607
 2867W        W10269   3.727   6.817   8.489
 2868W        W10270   6.093   0.696   0.276
 2869W        W10271   8.480   2.050   8.089
 2870W        W10272   1.146   8.520   0.802
 2871W        W10273   2.529   1.756   1.198
 2872W        W10274   8.468   3.020   8.988
 2873W        W10275  12.258   3.658   8.205
 2874W        W10276  17.751   0.709   8.696
 2875W        W10277  13.547   7.075   1.689
 2876W        W10278   5.067   9.415   1.544
 2877W        W10279  12.902   3.556   2.303
 2878W        W10280   5.257   7.291   1.642
 2879W        W10281  19.820   1.535   9.507
 2880W        W10282  16.138   2.063   8.254
 2881W        W10283  11.577   5.265   8.396
 2882W        W10284  14.765   3.353   9.794
 2883W        W10285   0.872   4.910   0.919
 2884W        W10286   3.385   8.792   9.548
 2885W        W10287  17.023   8.374   1.894
 2886W        W10288   0.725   5.075   9.491
 2887W        W10289  15.506   0.405   2.397
 2888W        W10290   7.359   6.960   0.495
 2889W        W10291  16.345   9.500   8.940
 2890W        W10292   3.177   5.212   9.113
 2891W        W10293  11.065   7.300   0.561
 2892W        W10294  19.110   6.970   7.625
 2893W        W10295  10.810   3.037   7.215
 2894W        W10296  10.781   1.195   0.807
 2895W        W10297   9.801   2.864   2.137
 2896W        W10298   3.859   0.111   2.186
 2897W        W10299   7.907   7.795   1.499
 2898W        W10300  14.683   3.185   8.534
 2899W        W10301  16.297   5.172   9.605
 2900W        W10302  18.985   8.527   2.185
 2901W        W10303   9.619   5.491   1.495
 2902W        W10304   2.039   8.337   0.842
 2903W        W10305  15.917   3.326   9.098
 2904W        W10306   6.867   4.249   9.149
 2905W        W10307  19.872   2.600   2.372
 2906W        W10308   5.130   3.167   9.956
 2907W        W10309  19.717   6.392   0.312
 2908W        W10310   5.954   8.112   1.583
 2909W        W10311  11.986   4.427   8.610
 2910W        W10312  15.041   4.202   9.873
 2911W        W10313   1.443   3.253   0.266
 2912W        W10314   5.928   3.845   9.138
 2913W        W10315  10.903   7.573   1.464
 2914W        W10316  17.116   2.078   9.263
 2915W        W10317  11.159   1.493   8.868
 2916W        W10318  14.637   6.479   9.222
 2917W        W10319  19.874   8.681   1.454
 2918W        W10320  11.097   7.456   9.334
 2919W        W10321  16.904   9.096   0.671
 2920W        W10322  14.127   7.149   9.776
 2921W        W10323   9.101   3.946   0.687
 2922W        W10324   4.746   7.136   9.040
 2923W        W10325  14.034   3.764   9.236
 2924W        W10326  15.590   9.262   7.714
 2925W        W10327   8.973   0.215   9.195
 2926W        W10328   1.855   2.617   9.314
 2927W        W10329  17.267   1.694   2.421
 2928W        W10330   9.533   6.260   2.013
 2929W        W10331  19.784   0.612   9.426
 2930W        W10332   7.887   8.731   1.069
 2931W        W10333   1.553   2.566   9.714
 2932W        W10334  13.857   8.040   8.027
 2933W        W10335  13.559   2.127   0.480
 2934W        W10336  17.826   8.008   8.090
 2935W        W10337   7.161   8.469   9.774
 2936W        W10338  15.653   6.416   8.157
 2937W        W10339   9.745   5.777   0.597
 2938W        W10340   0.619   4.172   9.529
 2939W        W10341  11.470   6.003   7.936
 2940W        W10342  10.417   5.406   8.453
 2941W        W10343  15.941   2.978   8.689
 2942W        W10344  18.692   3.991   1.722
 2943W        W10345  16.640   9.964   0.550
 2944W        W10346  10.393   8.858   9.440
 2945W        W10347   0.323   7.317   0.020
 2946W        W10348  12.494   8.526   8.021
 2947W        W10349   1.651   5.387   0.775
 2948W        W10350   0.787   7.542   9.994
 2949W        W10351   9.710   8.326   2.466
 2950W        W10352  11.578   9.795   1.563
 2951W        W10353  12.274   2.623   1.439
 2952W        W10354  12.930   2.178   2.218
 2953W        W10355  10.257   4.718   9.801
 2954W        W10356   1.431   5.341   9.098
 2955W        W10357   8.109   4.694   9.355
 2956W        W10358   6.824   1.117   0.127
 2957W        W10359   8.179   3.475   8.940
 2958W        W10360  12.452   7.270   9.800
 2959W        W10361   4.168   9.984   1.616
 2960W        W10362   6.751   1.851   2.050
 2961W        W10363  16.828   0.831   8.166
 2962W        W10364  -0.019   8.791   9.950
 2963W        W10365   7.298   5.641   1.218
 2964W        W10366  17.918   5.719   9.325
 2965W        W10367  11.836   5.999   0.260
 2966W        W10368   4.183   1.871   8.878
 2967W        W10369   2.554   5.926   1.009
 2968W        W10370   1.156   5.591   9.900
 2969W        W10371  14.558   5.452   1.131
 2970W        W10372  14.280   2.275   7.620
 2971W        W10373   2.941   8.393   2.025
 2972W        W10374   4.682   9.077   1.634
 2973W        W10375  17.841   1.111   1.038
 2974W        W10376  15.441   3.961   2.066
 2975W        W10377   6.236   8.534   0.703
 2976W        W10378   7.475   5.111   0.456
 2977W        W10379  17.740   6.864   9.763
 2978W        W10380  19.095   7.056   9.959
 2979W        W10381   4.777   2.163   1.844
 2980W        W10382   9.909   0.295   8.199
 2981W        W10383  14.946   6.887   9.566
 2982W        W10384   5.393   1.779   1.445
 2983W        W10385   7.023   9.757   8.513
 2984W        W10386  14.206   5.531   1.500
 2985W        W10387  18.760   7.927   1.883
 2986W        W10388   1.318   5.805   1.065
 2987W        W10389   1.545   5.085   2.153
 2988W        W10390   5.176   0.589   0.433
 2989W        W10391   7.777   7.468   1.113
 2990W        W10392  15.404   5.381   7.830
 2991W        W10393  17.527   3.250   2.126
 2992W        W10394   6.537   6.739   0.578
 2993W        W10395   2.345   4.482   1.834
 2994W        W10396  11.069   0.750   0.818
 2995W        W10397  12.050   8.728   8.644
 2996W        W10398  18.264   8.067   0.680
 2997W        W10399  11.138   3.328   0.393
 2998W        W10400   0.040   1.417   0.043
 2999W        W10401  13.263   3.974   1.380
 3000W        W10402   8.828   6.957   8.967
 3001W        W10403  13.775   8.076  10.000
 3002W        W10404   5.468   4.364   2.167
 3003W        W10405   7.615   7.354   0.074
 3004W        W10406  13.559   2.379   1.222
 3005W        W10407   6.922   3.954   8.129
 3006W        W10408   7.406   5.774   7.863
 3007W        W10409   6.863   6.222   7.954
 3008W        W10410   1.811   5.860   0.934
 3009W        W10411  11.623   6.892   7.982
 3010W        W10412   1.417   9.013   2.475
 3011W        W10413   9.667   5.562   9.777
 3012W        W10414   4.897   4.885   7.689
 3013W        W10415  19.916   0.286   8.503
 3014W        W10416  10.182   1.516   9.018
 3015W        W10417  18.115   7.299   0.611
 3016W        W10418   2.861   4.056   0.673
 3017W        W10419   6.075   4.974   0.420
 3018W        W10420  11.519   3.886   9.222
 3019W        W10421   1.400   5.125   8.196
 3020W        W10422  14.659   0.828   0.556
 3021W        W10423  12.316   2.529   8.144
 3022W        W10424  15.675   1.747   9.852
 3023W        W10425  17.641   7.013   2.183
 3024W        W10426   2.608   1.735   9.848
 3025W        W10427   2.218   6.075   1.799
 3026W        W10428   7.572   8.637   7.724
 3027W        W10429  12.237   1.097   7.727
 3028W        W10430  18.309   3.459   9.550
 3029W        W10431  11.043   5.994   9.795
 3030W        W10432  17.378   8.629   8.856
 3031W        W10433  19.981   6.242   2.501
 3032W        W10434  13.620   7.161   9.688
 3033W        W10435   7.792   2.586   8.658
 3034W        W10436  15.559   8.303   9.467
 3035W        W10437  16.922   4.454   1.872
 3036W        W10438  12.962   4.721   8.421
 3037W        W10439   4.723   5.019   0.408
 3038W        W10440  18.598   2.320   7.808
 3039W        W10441  11.381   4.829   8.228
 3040W        W10442  16.788   3.753   0.032
 3041W        W10443  12.091   6.463   9.204
 3042W        W10444   9.898   2.072   2.307
 3043W        W10445  16.035   6.427   9.142
 3044W        W10446   8.388   8.888   1.939
 3045W        W10447  10.376   9.334   0.140
 3046W        W10448   7.140   2.640   1.067
 3047W        W10449  17.001   0.734   1.159
 3048W        W10450   5.602   1.254   1.762
 3049W        W10451   9.991   3.500   9.649
 3050W        W10452  10.370   3.471   7.768
 3051W        W10453  17.576   6.241   8.020
 3052W        W10454  12.618   2.131   9.301
 3053W        W10455  14.739   7.278   2.189
 3054W        W10456   0.434   5.152   8.399
 3055W        W10457   8.062   4.143   7.744
 3056W        W10458   6.716   8.405   0.540
 3057W        W10459  11.293   6.384   1.453
 3058W        W10460  15.631   7.347   8.464
 3059W        W10461   7.457   2.207   8.816
 3060W        W10462  10.301   7.575   0.182
 3061W        W10463   0.369   1.042   9.816
 3062W        W10464   3.273   5.641   0.564
 3063W        W10465   8.943   1.397   9.820
 3064W        W10466  12.178   3.447   9.205
 3065W        W10467   9.403   0.216   0.490
 3066W        W10468  17.216   2.615   7.585
 3067W        W10469   1.467   4.634   9.750
 3068W        W10470  18.346   6.409   9.550
 3069W        W10471   8.644   9.273   1.757
 3070W        W10472   1.066   1.792   9.196
 3071W        W10473  12.328   0.430   1.813
 3072W        W10474   7.200   3.954   1.722
 3073W        W10475   0.957   0.610   0.283
 3074W        W10476   4.108   6.179   2.155
 3075W        W10477   2.305   1.319   9.603
 3076W        W10478   7.931   9.367   1.236
 3077W        W10479  15.479   5.372   0.938
 3078W        W10480   0.937   2.422   1.368
 3079W        W10481   3.405   4.205   9.803
 3080W        W10482  18.437   4.810   0.861
 3081W        W10483  11.825   5.587   9.665
 3082W        W10484   0.047   3.245   8.035
 3083W        W10485   9.735   7.830   2.653
 3084W        W10486  19.795   3.000   1.594
 3085W        W10487   5.780   0.827   1.096
 3086W        W10488  11.717   4.330   9.437
 3087W        W10489   5.088   5.578   8.698
 3088W        W10490  15.817   7.958   1.810
 3089W        W10491   5.020   9.602   7.203
 3090W        W10492  16.153   3.165   0.342
 3091W        W10493  10.912   8.280   8.971
 3092W        W10494   7.289   6.141   1.021
 3093W        W10495  12.137   9.528   9.773
 3094W        W10496   6.686   4.776   1.386
 3095W        W10497  11.622   7.716   9.803
 3096W        W10498  12.527   4.648   9.222
 3097W        W10499  11.766   8.651   0.079
 3098W        W10500   7.416   9.290   1.243
 3099W        W10501  18.220   3.849   1.744
 3100W        W10502   2.137   0.107   8.493
 3101W        W10503  12.161   7.355   9.372
 3102W        W10504   9.355   8.895   9.388
 3103W        W10505  12.639   6.085   1.624
 3104W        W10506  11.967   7.899   1.903
 3105W        W10507  16.756   0.843   0.718
 3106W        W10508  18.761   0.972   0.661
 3107W        W10509   5.369   5.176   9.899
 3108W        W10510   1.586   6.627   7.299
 3109W        W10511   0.317   9.159   1.654
 3110W        W10512   1.366   4.593   2.108
 3111W        W10513   5.855   8.889   0.146
 3112W        W10514   8.342   9.402   2.186
 3113W        W10515  10.347   6.582   1.815
 3114W        W10516  15.478   9.223   0.461
 3115W        W10517  18.801   0.975   9.973
 3116W        W10518  12.205   1.263   0.764
 3117W        W10519   4.726   3.911   1.597
 3118W        W10520  19.791   8.472   9.568
 3119W        W10521  14.068   2.220   2.478
 3120W        W10522   8.404   8.652   7.646
 3121W        W10523  14.180   7.863   1.535
 3122W        W10524   0.056   4.957   8.013
 3123W        W10525  17.941   2.134   7.866
 3124W        W10526   2.130   3.492   8.891
 3125W        W10527   8.436   4.070   1.001
 3126W        W10528  16.959   7.660   0.562
 3127W        W10529   2.744   6.180   1.672
 3128W        W10530   9.892   6.290   0.541
 3129W        W10531   9.527   3.229   9.666
 3130W        W10532   5.976   9.308   9.280
 3131W        W10533  15.370   6.054   0.323
 3132W        W10534  15.205   9.272   9.665
 3133W        W10535   4.016   7.457   9.475
 3134W        W10536   5.843   2.219   0.453
 3135W        W10537  13.274   0.796   1.585
 3136W        W10538   0.655   1.979   0.435
 3137W        W10539   6.156   9.935   1.180
 3138W        W10540   7.713   5.983   1.241
 3139W        W10541  10.650   4.253   8.627
 3140W        W10542   5.881   0.044   8.052
 3141W        W10543   9.535   7.139   1.430
 3142W        W10544   5.922   7.358   8.602
 3143W        W10545   6.415   3.065   9.506
 3144W        W10546   5.726   9.654   8.517
 3145W        W10547  18.437   4.976   1.342
 3146W        W10548  15.257   6.188   7.617
 3147W        W10549  11.275   5.581   8.719
 3148W        W10550   3.112   2.092   9.359
 3149W        W10551  10.465   0.339   1.339
 3150W        W10552  10.840   6.473   0.537
 3151W        W10553  17.220   1.153   9.397
 3152W        W10554  17.809   7.731   0.529
 3153W        W10555   6.854   3.086   7.990
 3154W        W10556  10.298   9.105   8.472
 3155W        W10557  19.415   2.805   2.258
 3156W        W10558  17.002   2.130   0.251
 3157W        W10559   7.445   9.807   8.783
 3158W        W10560  18.647   9.650   2.048
 3159W        W10561   1.958   5.097   1.167
 3160W        W10562  15.716   3.025   0.087
 3161W        W10563   0.934   0.052   9.689
 3162W        W10564  11.618   3.095   7.718
 3163W        W10565   2.386   3.398   7.812
 3164W        W10566  11.743   8.258   8.372
 3165W        W10567   9.909   1.368   1.834
 3166W        W10568  13.129   9.750   8.849
 3167W        W10569  12.212   1.272   0.235
 3168W        W10570  10.669   5.911   2.194
 3169W        W10571  17.779   4.185   9.965
 3170W        W10572   6.297   2.340   0.635
 3171W        W10573  19.634   7.638   7.955
 3172W        W10574   4.065   1.092   7.809
 3173W        W10575   9.644   4.399   8.527
 3174W        W10576   9.682   8.891   1.203
 3175W        W10577  18.926   9.798   1.054
 3176W        W10578  13.280   7.064   7.718
 3177W        W10579   7.136   8.546   0.830
 3178W        W10580   7.348   0.945   0.131
 3179W        W10581  15.281   8.715   1.434
 3180W        W10582   0.727   1.047   0.200
 3181W        W10583   8.160   2.302   8.406
 3182W        W10584   3.435   9.995   9.968
 3183W        W10585  11.063   0.743   0.283
 3184W        W10586   8.996   4.009   9.762
 3185W        W10587   7.121   7.487   8.760
 3186W        W10588  16.670   1.609   7.706
 3187W        W10589  11.220   1.164   0.548
 3188W        W10590   0.988   9.857   1.461
 3189W        W10591   9.958   2.695   8.294
 3190W        W10592   3.636   2.121   9.367
 3191W        W10593   8.086   3.952   1.347
 3192W        W10594   3.560   6.104   8.143
 3193W        W10595  14.823   2.425   8.680
 3194W        W10596  18.239   2.331   1.385
 3195W        W10597   9.471   2.970   2.533
 3196W        W10598  15.818   1.644   0.339
 3197W        W10599   1.998   3.572   7.500
 3198W        W10600  12.382   9.532   0.261
 3199W        W10601   2.811   4.151   1.576
 3200W        W10602  12.187   7.819   0.302
 3201W        W10603  14.109   3.876   1.640
 3202W        W10604  18.165   2.955   2.019
 3203W        W10605   3.341   6.842   1.445
 3204W        W10606  10.766   3.036   1.916
 3205W        W10607  19.741   1.119   7.648
 3206W        W10608   2.326   8.545   8.730
 3207W        W10609  12.618   0.413   8.658
 3208W        W10610   6.654   7.202   7.920
 3209W        W10611  12.558   3.253   9.517
 3210W        W10612  19.638   1.507   8.456
 3211W        W10613   4.294   2.121   1.218
 3212W        W10614  17.793   7.835   1.782
 3213W        W10615   6.676   9.903   1.280
 3214W        W10616   8.649   6.351   1.499
 3215W        W10617  16.982   5.744   8.401
 3216W        W10618  16.561   7.132   7.517
 3217W        W10619  13.699   8.467   0.760
 3218W        W10620  17.026   2.290   2.262
 3219W        W10621  12.667   5.497   8.727
 3220W        W10622   1.794   0.318   2.036
 3221W        W10623  14.401   6.213   0.048
 3222W        W10624   0.136   1.782   9.177
 3223W        W10625  17.969   1.334   9.600
 3224W        W10626  15.192   2.002   7.955
 3225W        W10627   2.941   5.488   9.485
 3226W        W10628  12.975   9.806   7.884
 3227W        W10629  17.425   2.261   1.113
 3228W        W10630   9.355   5.693   8.403
 3229W        W10631  12.882   0.672   9.312
 3230W        W10632   4.728   3.190   0.361
 3231W        W10633  14.887   1.189   0.888
 3232W        W10634  11.419   3.902   8.133
 3233W        W10635   9.833   0.218   9.173
 3234W        W10636   9.330   6.836   1.934
 3235W        W10637  16.472   9.500   9.430
 3236W        W10638  13.183   0.430   0.778
 3237W        W10639   0.102   7.031   7.467
 3238W        W10640   5.320   3.330   8.748
 3239W        W10641  10.183   2.407   0.931
 3240W        W10642   1.116   1.411   0.039
 3241W        W10643   1.402   6.436   9.273
 3242W        W10644   1.335   6.040   8.060
 3243W        W10645   6.968   3.256   2.752
 3244W        W10646   5.157   1.311   1.524
 3245W        W10647   1.316   9.869   1.064
 3246W        W10648  13.094   7.885   0.649
 3247W        W10649   8.161   3.092   1.212
 3248W        W10650  17.854   5.493   0.310
 3249W        W10651   4.587   8.075   9.226
 3250W        W10652  16.357   1.119   1.820
 3251W        W10653   2.953   6.247   1.164
 3252W        W10654   8.006   0.889   1.945
 3253W        W10655   3.773   5.645   9.904
 3254W        W10656   3.337   3.956   1.607
 3255W        W10657   1.301   4.993   8.670
 3256W        W10658   9.381   1.806   9.128
 3257W        W10659   4.903   9.178   8.335
 3258W        W10660  16.739   2.725   2.306
 3259W        W10661  10.825   9.109   1.623
 3260W        W10662   6.036   3.301   2.611
 3261W        W10663  10.209   6.084   0.130
 3262W        W10664  18.401   3.878   9.234
 3263W        W10665   8.393   5.376   8.880
 3264W        W10666  19.855   8.872   0.458
 3265W        W10667  18.030   5.971   7.932
 3266W        W10668   2.037   4.706   7.618
 3267W        W10669   2.578   9.102   0.005
 3268W        W10670   9.518   8.502   8.497
 3269W        W10671  12.145   4.308   2.333
 3270W        W10672  17.491   1.180   8.697
 3271W        W10673  19.803   2.123   8.873
 3272W        W10674   2.135   0.607   8.614
 3273W        W10675  11.594   3.421   9.450
 3274W        W10676  15.249   5.492   8.287
 3275W        W10677   9.286   7.147   9.457
 3276W        W10678   0.349   8.946   0.814
 3277W        W10679   3.051   9.280   1.671
 3278W        W10680  16.234   6.716   8.737
 3279W        W10681   1.909   0.999   8.865
 3280W        W10682   6.593   8.984   1.252
 3281W        W10683   8.206   3.574   1.006
 3282W        W10684  15.824   4.597   8.953
 3283W        W10685   2.034   6.896   1.580
 3284W        W10686  17.641   3.808   9.611
 3285W        W10687   6.757   3.356   9.236
 3286W        W10688   4.757   5.074   9.095
 3287W        W10689   0.442   4.882   1.259
 3288W        W10690  19.327   8.206   1.975
 3289W        W10691  14.966   1.980   8.887
 3290W        W10692   0.544   1.055   8.897
 3291W        W10693  18.297   7.220   9.025
 3292W        W10694   3.703   1.819   9.778
 3293W        W10695  14.754   9.903   1.011
 3294W        W10696  12.937   0.688   8.337
 3295W        W10697  18.635   1.767   2.401
 3296W        W10698  13.322   4.414   0.252
 3297W        W10699   3.518   4.537   8.519
 3298W        W10700   8.295   6.503   1.882
 3299W        W10701  11.141   3.113   7.598
 3300W        W10702  14.162   1.131   0.174
 3301W        W10703   3.136   0.289   0.746
 3302W        W10704  19.993   9.282   0.173
 3303W        W10705  12.002   3.588   1.736
 3304W        W10706   9.292   4.357   8.167
 3305W        W10707  11.172   2.095   8.307
 3306W        W10708  10.301   3.174   1.139
 3307W        W10709  14.449   9.968   2.238
 3308W        W10710  15.344   3.825   7.793
 3309W        W10711  11.771   4.673   9.867
 3310W        W10712   7.387   0.666   9.656
 3311W        W10713  18.973   5.822   1.218
 3312W        W10714  11.549   9.023   8.005
 3313W        W10715  12.019   8.628   9.624
 3314W        W10716   9.955   9.130   1.579
 3315W        W10717   8.822   9.468   7.749
 3316W        W10718  15.155   4.960   0.880
 3317W        W10719  18.441   3.804   2.210
 3318W        W10720  18.404   9.850   0.748
 3319W        W10721   2.197   0.201   1.283
 3320W        W10722  15.023   5.360   9.857
 3321W        W10723   9.698   2.266   0.806
 3322W        W10724   8.730   3.467   8.097
 3323W        W10725  11.589   6.433   0.104
 3324W        W10726   6.697   7.587   1.820
 3325W        W10727  13.966   5.846   0.166
 3326W        W10728  11.580   6.843   9.796
 3327W        W10729   2.018   1.737   8.894
 3328W        W10730   1.612   4.745   7.931
 3329W        W10731  13.920   1.250   9.560
 3330W        W10732   0.316   2.385   2.197
 3331W        W10733   9.478   6.199   8.244
 3332W        W10734  18.775   7.328   9.259
 3333W        W10735  12.800   7.020   0.117
 3334W        W10736   2.613   6.242   8.457
 3335W        W10737   3.438   0.731   0.990
 3336W        W10738  11.365   8.010   2.070
 3337W        W10739  11.536   9.911   0.546
 3338W        W10740   7.240   5.983   8.326
 3339W        W10741  18.073   9.423   7.805
 3340W        W10742  16.155   0.246   1.810
 3341W        W10743   5.054   9.392   9.306
 3342W        W10744  12.651   0.186   7.800
 3343W        W10745  14.603   9.189   7.972
 3344W        W10746   4.908   5.370   0.732
 3345W        W10747  13.658   5.869   7.511
 3346W        W10748  13.821   7.105   0.212
 3347W        W10749  18.177   6.085   1.785
 3348W        W10750   6.506   8.638   8.709
 3349W        W10751  15.380   7.087   9.782
 3350W        W10752  10.079   1.071   9.251
 3351W        W10753  10.001   6.598   9.291
 3352W        W10754  19.432   8.366   7.634
 3353W        W10755   1.821   7.459   8.207
 3354W        W10756  10.903   4.746   8.066
 3355W        W10757  18.995   9.443   9.623
 3356W        W10758   9.435   4.852   1.046
 3357W        W10759   6.640   8.868   0.749
 3358W        W10760  12.074   3.054   1.163
 3359W        W10761  19.719   6.220   7.589
 3360W        W10762   3.576   3.461   1.402
 3361W        W10763  10.478   5.659   9.259
 3362W        W10764   2.962   3.118   1.728
 3363W        W10765  15.872   6.828   9.460
 3364W        W10766  14.748   4.982   9.586
 3365W        W10767  18.743   4.465   1.879
 3366W        W10768   7.655   6.518   0.521
 3367W        W10769   7.519   5.891   8.773
 3368W        W10770  17.282   7.759   9.755
 3369W        W10771  16.679   8.425   9.688
 3370W        W10772   1.044   0.758   8.955
 3371W        W10773   4.174   0.861   9.041
 3372W        W10774  17.037   7.943   7.643
 3373W        W10775   5.624   7.587   8.957
 3374W        W10776  15.961   4.968   8.624
 3375W        W10777  19.309   5.175   9.883
 3376W        W10778   9.232   1.677   8.076
 3377W        W10779  12.376   3.808   7.728
 3378W        W10780   7.994   7.890   8.476
 3379W        W10781  15.254   7.081   1.945
 3380W        W10782   5.401   2.139   2.309
 3381W        W10783   6.744   4.666   0.427
 3382W        W10784   1.491   9.514   2.442
 3383W        W10785  16.849   1.178   1.868
 3384W        W10786   7.880   9.228   0.732
 3385W        W10787  19.439   0.534   0.279
 3386W        W10788   0.936   4.611   9.520
 3387W        W10789   8.204   0.658   1.006
 3388W        W10790   3.069   2.818   2.460
 3389W        W10791  15.637   3.662   1.035
 3390W        W10792   7.198   2.544   1.562
 3391W        W10793  12.380   6.622   2.338
 3392W        W10794  15.005   1.115   7.704
 3393W        W10795   4.793   0.178   2.232
 3394W        W10796  17.047   4.009   0.422
 3395W        W10797  12.684   6.944   1.612
 3396W        W10798   1.177   1.066   0.449
 3397W        W10799  17.778   0.152   9.632
 3398W        W10800   8.697   3.088   0.503
 3399W        W10801   0.316   1.290   9.339
 3400W        W10802   2.747   1.374   8.701
 3401W        W10803  17.871   4.022   1.264
 3402W        W10804  16.164   2.310   9.240
 3403W        W10805  14.178   8.614   0.763
 3404W        W10806   1.741   0.182   1.069
 3405W        W10807   8.464   2.089   8.990
 3406W        W10808   6.467   3.226   1.641
 3407W        W10809  17.622   0.542   9.941
 3408W        W10810  19.306   0.941   9.962
 3409W        W10811   0.121   0.710   7.703
 3410W        W10812  10.958   4.329   1.344
 3411W        W10813  16.824   7.891   2.013
 3412W        W10814   0.935   3.170   0.232
 3413W        W10815   9.332   2.785   9.364
 3414W        W10816  11.549   0.528   7.692
 3415W        W10817  18.903   4.830   1.097
 3416W        W10818  14.858   4.879   0.490
 3417W        W10819   6.844   2.274   7.821
 3418W        W10820   1.490   3.813   0.990
 3419W        W10821   0.308   7.327   1.140
 3420W        W10822  11.682   4.481   2.196
 3421W        W10823   9.575   5.177   9.446
 3422W        W10824  10.930   9.481   9.376
 3423W        W10825  16.830   1.637   8.186
 3424W        W10826  18.764   6.338   1.297
 3425W        W10827   5.890   2.685   0.684
 3426W        W10828   7.371   4.207   8.161
 3427W        W10829   2.728   5.530   8.463
 3428W        W10830   2.954   3.575   9.930
 3429W        W10831   5.395   3.972   8.227
 3430W        W10832   1.830   6.800   8.551
 3431W        W10833  16.506   2.049   1.512
 3432W        W10834   9.824   9.398   8.476
 3433W        W10835   4.232   6.336   8.912
 3434W        W10836   9.586   8.396   1.950
 3435W        W10837   8.418   8.189   7.930
 3436W        W10838  17.720   8.445   8.486
 3437W        W10839  10.372   7.111   8.442
 3438W        W10840   9.749   7.458   2.298
 3439W        W10841  16.592   8.942   1.052
 3440W        W10842  13.182   1.282   0.576
 3441W        W10843  10.907   8.833   2.064
 3442W        W10844  19.192   9.989   1.535
 3443W        W10845  10.615   3.314   9.118
 3444W        W10846  14.406   3.848   2.064
 3445W        W10847  18.459   0.570   9.987
 3446W        W10848  15.291   7.675   8.228
 3447W        W10849  10.845   1.959   8.720
 3448W        W10850  18.413   6.329   7.891
 3449W        W10851  16.298   2.981   1.409
 3450W        W10852  10.527   0.822   2.099
 3451W        W10853   2.535   1.834   8.745
 3452W        W10854   2.448   6.575   0.300
 3453W        W10855  16.039   7.686   8.781
 3454W        W10856  17.907   3.692   0.021
 3455W        W10857   3.423   3.505   0.132
 3456W        W10858   1.640   1.129   0.233
 3457W        W10859  17.174   0.910   1.616
 3458W        W10860  11.531   4.934   1.985
 3459W        W10861  18.467   5.081   8.321
 3460W        W10862   3.021   7.624   0.255
 3461W        W10863  18.449   8.637   9.373
 3462W        W10864  15.883   5.324   9.862
 3463W        W10865  16.992   2.624   1.861
 3464W        W10866  19.622   0.676   8.411
 3465W        W10867   5.128   9.268   0.631
 3466W        W10868   5.259   0.704   0.912
 3467W        W10869   4.671   8.344   2.373
 3468W        W10870  18.241   6.369   2.204
 3469W        W10871  17.855   1.875   0.385
 3470W        W10872   7.308   3.123   1.137
 3471W        W10873  10.264   2.824   0.216
 3472W        W10874   4.113   2.845   9.796
 3473W        W10875  19.151   9.567   0.116
 3474W        W10876   7.160   8.452   8.727
 3475W        W10877   7.607   2.696   1.238
 3476W        W10878   7.996   1.343   1.705
 3477W        W10879  18.779   2.618   9.938
 3478W        W10880  12.565   1.845   0.652
 3479W        W10881  16.518   9.928   1.073
 3480W        W10882  14.602   1.337   0.506
 3481W        W10883   5.840   6.016   1.226
 3482W        W10884  12.048   0.407   8.892
 3483W        W10885  15.624   7.440   8.986
 3484W        W10886   8.938   4.696   9.103
 3485W        W10887  12.830   1.309   8.463
 3486W        W10888  14.339   5.593   9.201
 3487W        W10889  10.764   2.900   8.321
 3488W        W10890  17.046   4.987   2.007
 3489W        W10891   7.345   3.610   0.924
 3490W        W10892  17.608   1.436   0.281
 3491W        W10893   8.483   8.644   8.181
 3492W        W10894   6.165   8.103   2.513
 3493W        W10895  11.628   8.666   1.369
 3494W        W10896  12.473   0.524   8.162
 3495W        W10897   6.398   1.466   9.296
 3496W        W10898   9.466   7.203   0.820
 3497W        W10899  11.934   4.022   1.485
 3498W        W10900   7.636   2.816   2.328
 3499W        W10901   5.758   4.945   1.723
 3500W        W10902  19.325   3.782   8.310
 3501W        W10903  10.577   0.376   2.341
 3502W        W10904  15.968   2.779   7.532
 3503W        W10905  12.969   7.430   0.362
 3504W        W10906   6.186   4.863   1.986
 3505W        W10907  13.064   2.179   1.716
 3506W        W10908   8.663   9.993   8.599
 3507W        W10909  18.265   7.847   2.071
 3508W        W10910   1.596   4.191   8.486
 3509W        W10911   6.148   9.562   1.525
 3510W        W10912  12.425   3.004   9.086
 3511W        W10913  19.830   9.543   7.481
 3512W        W10914  11.172   2.901   1.520
 3513W        W10915  17.294   5.393   8.192
 3514W        W10916   7.869   6.442   7.731
 3515W        W10917  12.405   5.237   1.851
 3516W        W10918  15.238   2.080   8.451
 3517W        W10919  19.288   7.252   9.449
 3518W        W10920   5.182   5.218   8.341
 3519W        W10921   8.971   8.389   0.759
 3520W        W10922   2.847   9.583   7.314
 3521W        W10923   7.645   9.211   9.841
 3522W        W10924   0.633   4.436   8.448
 3523W        W10925  14.822   2.052   0.729
 3524W        W10926   7.068   3.413   7.654
 3525W        W10927  10.060   8.024   0.199
 3526W        W10928  14.362   8.423   1.220
 3527W        W10929   8.514   4.973   1.068
 3528W        W10930   9.140   2.955   2.947
 3529W        W10931  14.727   6.096   7.604
 3530W        W10932   6.152   3.694   8.699
 3531W        W10933  14.145   8.406   9.851
 3532W        W10934   2.311   1.622   2.344
 3533W        W10935   9.757   6.808   0.624
 3534W        W10936  10.779   1.191   0.238
 3535W        W10937   1.518   6.880   0.415
 3536W        W10938  10.171   7.752   2.380
 3537W        W10939   7.081   0.266   9.649
 3538W        W10940   2.697   9.539   9.675
 3539W        W10941   0.572   1.021   2.071
 3540W        W10942  14.347   6.211   7.939
 3541W        W10943   5.352   0.172   0.153
 3542W        W10944   9.031   3.901   8.108
 3543W        W10945   1.138   4.627   0.137
 3544W        W10946  10.857   3.523   7.596
 3545W        W10947  17.189   5.855   0.798
 3546W        W10948   1.402   2.605   1.293
 3547W        W10949   1.081   8.673   2.318
 3548W        W10950   4.558   9.038   0.201
 3549W        W10951  16.923   3.691   9.119
 3550W        W10952  15.254   6.755   1.499
 3551W        W10953  18.369   4.436   9.553
 3552W        W10954   0.205   5.259   1.553
 3553W        W10955   6.459   9.862   0.783
 3554W        W10956  10.650   3.977   1.087
 3555W        W10957   2.627   0.486   8.533
 3556W        W10958   9.306   7.621   1.311
 3557W        W10959   2.592   2.650   9.836
 3558W        W10960  18.866   2.744   7.624
 3559W        W10961   5.771   8.436   9.903
 3560W        W10962  17.941   5.288   2.104
 3561W        W10963  12.335   3.441   2.525
 3562W        W10964   1.739   2.471   1.679
 3563W        W10965  11.703   1.011   7.636
 3564W        W10966  15.190   8.114   0.639
 3565W        W10967  19.816   8.867   1.915
 3566W        W10968  13.246   9.989   0.492
 3567W        W10969  17.368   4.150   2.287
 3568W        W10970   8.958   3.523   2.105
 3569W        W10971   4.576   1.045   0.909
 3570W        W10972   4.880   4.577   9.220
 3571W        W10973   4.960   7.443   1.251
 3572W        W10974  12.727   2.722   9.585
 3573W        W10975   7.740   9.710   0.677
 3574W        W10976   3.230   4.251   8.149
 3575W        W10977  14.152   9.226   8.209
 3576W        W10978  18.013   0.337   1.664
 3577W        W10979  11.354   1.960   9.817
 3578W        W10980   4.477   4.725   8.865
 3579W        W10981   6.739   7.438   9.600
 3580W        W10982  12.456   3.335   1.448
 3581W        W10983  18.892   3.299   7.726
 3582W        W10984  18.127   6.864   2.078
 3583W        W10985  17.473   3.036   0.358
 3584W        W10986  10.010   6.505   7.969
 3585W        W10987   0.198   1.997   7.997
 3586W        W10988  17.279   0.773   7.880
 3587W        W10989  17.490   4.356   9.139
 3588W        W10990  17.429   3.025   8.581
 3589W        W10991   9.561   8.930   0.326
 3590W        W10992   3.415   2.093   8.423
 3591W        W10993  13.373   9.897   1.467
 3592W        W10994   7.459   6.299   8.001
 3593W        W10995   9.917   2.830   2.762
 3594W        W10996   2.958   9.105   9.684
 3595W        W10997   8.973   2.999   8.936
 3596W        W10998  14.918   4.620   7.769
 3597W        W10999  16.506   2.041   0.973
 3598W        W11000   2.992   4.001   2.033
 3599W        W11001  12.509   7.715   9.459
 3600W        W11002  13.904   7.636   0.812
 3601W        W11003  13.843   3.336   9.921
 3602W        W11004  18.498   8.668   1.296
 3603W        W11005  12.808   4.259   8.281
 3604W        W11006  13.772   4.928   8.259
 3605W        W11007   8.488   9.766   1.769
 3606W        W11008   6.576   2.763   1.915
 3607W        W11009  11.543   9.061   8.839
 3608W        W11010  14.432   8.365   1.723
 3609W        W11011  17.754   9.101   9.412
 3610W        W11012  12.141   9.855   8.910
 3611W        W11013  18.346   1.841   0.219
 3612W        W11014   1.461   0.643   0.340
 3613W        W11015   1.936   0.927   1.206
 3614W        W11016   1.311   2.195   1.608
 3615W        W11017  17.393   6.597   1.526
 3616W        W11018   5.777   9.062   0.635
 3617W        W11019   0.548   8.241   7.936
 3618W        W11020   4.910   8.777   0.524
 3619W        W11021  16.217   2.678   2.249
 3620W        W11022  10.920   9.904   9.100
 3621W        W11023   5.742   1.720   9.661
 3622W        W11024  10.510   9.347   9.641
 3623W        W11025  11.897   7.075   7.579
 3624W        W11026  10.752   4.836   2.027
 3625W        W11027  18.357   6.380   9.048
 3626W        W11028   8.326   6.439   7.923
 3627W        W11029   9.557   3.518   8.379
 3628W        W11030   7.508   6.879   9.309
 3629W        W11031   7.589   0.523   7.907
 3630W        W11032   2.794   1.720   1.644
 3631W        W11033   8.547   6.019   8.153
 3632W        W11034  10.270   3.025   2.060
 3633W        W11035  18.576   3.029   9.687
 3634W        W11036   5.643   4.986   0.682
 3635W        W11037   0.875   8.224   2.191
 3636W        W11038   4.804   5.891   9.421
 3637W        W11039  12.647   6.519   1.907
 3638W        W11040  10.835   1.210   7.991
 3639W        W11041   9.883   4.354   2.462
 3640W        W11042   4.776   6.869   0.298
 3641W        W11043   2.990   0.877   0.058
 3642W        W11044   0.489   0.319   0.957
 3643W        W11045   0.905   4.279   9.102
 3644W        W11046   6.713   9.890   1.818
 3645W        W11047   7.109   7.407   7.747
 3646W        W11048  13.466   2.621   0.320
 3647W        W11049  19.114   8.131   8.971
 3648W        W11050   8.687   9.051   8.915
 3649W        W11051  12.127   4.664   9.523
 3650W        W11052  17.910   5.651   1.732
 3651W        W11053  19.576   8.555   2.236
 3652W        W11054  15.423   6.116   8.942
 3653W        W11055   7.445   8.836   2.157
 3654W        W11056  19.495   4.856   0.229
 3655W        W11057  12.202   3.361   0.689
 3656W        W11058   0.917   4.392   0.729
 3657W        W11059  12.622   1.342   1.544
 3658W        W11060  12.934   0.672   7.330
 3659W        W11061   2.801   1.306   1.337
 3660W        W11062   4.015   4.630   9.020
 3661W        W11063   1.337   8.323   0.340
 3662W        W11064   2.758   3.635   8.664
 3663W        W11065  16.253   7.881   1.567
 3664W        W11066  18.579   2.163   8.372
 3665W        W11067   4.562   2.104   8.554
 3666W        W11068   2.167   1.773   7.783
 3667W        W11069  10.395   6.238   0.562
 3668W        W11070  18.568   9.558   8.550
 3669W        W11071  10.586   5.064   0.671
 3670W        W11072   3.587   9.351   2.567
 3671W        W11073  18.150   6.962   1.577
 3672W        W11074   8.230   7.228   1.220
 3673W        W11075  16.147   9.126   9.251
 3674W        W11076  10.426   2.526   8.433
 3675W        W11077   6.185   0.515   8.664
 3676W        W11078  19.968   9.372   1.969
 3677W        W11079   5.341   8.359   0.183
 3678W        W11080  14.252   4.095   8.501
 3679W        W11081  14.755   4.066   8.583
 3680W        W11082   6.170   9.001   0.956
 3681W        W11083   8.784   0.700   1.448
 3682W        W11084  11.006   2.616   9.614
 3683W        W11085  19.162   1.153   7.432
 3684W        W11086   8.451   8.185   7.425
 3685W        W11087  18.863   9.256   2.366
 3686W        W11088   6.355   7.632   2.630
 3687W        W11089  19.373   8.909   0.826
 3688W        W11090   0.253   1.895   0.124
 3689W        W11091  12.320   7.118   2.461
 3690W        W11092  15.061   4.047   0.735
 3691W        W11093   5.818   6.812   9.325
 3692W        W11094   8.779   7.516   2.465
 3693W        W11095   3.125   7.725   9.341
 3694W        W11096  10.058   7.514   9.283
 3695W        W11097   3.670   1.204   1.039
 3696W        W11098  17.579   4.941   8.891
 3697W        W11099  12.603   8.810   1.485
 3698W        W11100   8.523   1.288   9.256
 3699W        W11101  13.683   9.670   8.347
 3700W        W11102   7.640   1.734   1.758
 3701W        W11103   2.883   6.657   8.368
 3702W        W11104  14.465   8.147   9.563
 3703W        W11105  19.288   1.125   7.928
 3704W        W11106   0.630   4.745   9.114
 3705W        W11107  16.274   1.689   0.150
 3706W        W11108   8.879   7.753   1.559
 3707W        W11109   1.495   2.544   8.594
 3708W        W11110   0.692   2.726   9.157
 3709W        W11111   2.163   1.785   9.398
 3710W        W11112  15.361   1.853   9.282
 3711W        W11113  13.871   2.287   7.908
 3712W        W11114  13.683   1.120   0.777
 3713W        W11115  15.085   8.493   1.935
 3714W        W11116   5.966   7.737   7.607
 3715W        W11117   6.951   9.273   9.239
 3716W        W11118  17.787   0.257   1.211
 3717W        W11119   8.595   6.713   0.162
 3718W        W11120  10.301   6.286   1.337
 3719W        W11121   8.451   6.311   1.014
 3720W        W11122   0.656   9.794   0.459
 3721W        W11123   1.079   2.302   9.871
 3722W        W11124  19.814   9.197   1.518
 3723W        W11125   4.070   4.104   9.302
 3724W        W11126   1.911   3.845   0.666
 3725W        W11127  12.594   6.007   8.910
 3726W        W11128   1.912   4.383   8.121
 3727W        W11129   9.121   2.977   0.791
 3728W        W11130  17.473   5.786   0.129
 3729W        W11131   4.371   3.518   0.538
 3730W        W11132  13.799   3.820   9.711
 3731W        W11133   6.705   5.206   9.466
 3732W        W11134   7.606   5.283   7.727
 3733W        W11135  18.471   0.105   8.555
 3734W        W11136   5.853   0.256   0.337
 3735W        W11137   6.624   8.459   1.083
 3736W        W11138   7.969   1.465   9.961
 3737W        W11139   5.337   2.867   2.398
 3738W        W11140   6.200   4.129   8.446
 3739W        W11141  14.176   5.909   0.637
 3740W        W11142   7.100   8.022   0.038
 3741W        W11143  15.569   7.892   2.253
 3742W        W11144  14.605   3.644   8.824
 3743W        W11145   0.563   6.594   0.386
 3744W        W11146   4.130   1.788   1.984
 3745W        W11147   3.088   8.772   1.718
 3746W        W11148   5.862   2.839   2.423
 3747W        W11149  10.312   0.169   9.363
 3748W        W11150  17.252   1.561   9.035
 3749W        W11151   9.855   2.818   1.172
 3750W        W11152  18.769   1.654   1.886
 3751W        W11153   9.591   4.390   9.322
 3752W        W11154  11.584   8.098   7.693
 3753W        W11155  13.271   8.723   9.951
 3754W        W11156  14.463   9.164   0.681
 3755W        W11157   4.330   4.239   8.890
 3756W        W11158  19.475   4.028   0.291
 3757W        W11159  19.763   0.148   9.695
 3758W        W11160  17.101   2.076   8.297
 3759W        W11161   5.164   3.837   8.673
 3760W        W11162   4.286   5.875   9.377
 3761W        W11163   0.838   8.959   0.144
 3762W        W11164  14.964   2.721   9.632
 3763W        W11165   5.659   7.679   1.657
 3764W        W11166  18.794   9.668   1.552
 3765W        W11167  16.143   0.318   8.445
 3766W        W11168   1.473   5.873   8.974
 3767W        W11169   8.993   4.462   1.144
 3768W        W11170  13.418   6.505   1.440
 3769W        W11171  11.465   8.219   1.184
 3770W        W11172  13.301   1.518   8.343
 3771W        W11173   9.312   9.820   9.881
 3772W        W11174   7.996   7.449   9.259
 3773W        W11175   8.560   3.606   1.795
 3774W        W11176  19.874   3.487   9.872
 3775W        W11177   0.761   4.947   7.639
 3776W        W11178  10.427   4.768   9.323
 3777W        W11179  12.820  10.004   0.216
 3778W        W11180   7.144   9.827   2.099
 3779W        W11181   0.439   5.816   0.935
 3780W        W11182   8.783   1.499   1.024
 3781W        W11183  12.428   0.646   9.549
 3782W        W11184   5.219   1.951   7.509
 3783W        W11185  16.416   6.074   1.800
 3784W        W11186   5.294   5.987   0.349
 3785W        W11187   7.699   6.034   0.717
 3786W        W11188  14.797   0.839   1.845
 3787W        W11189   5.602   5.414   1.803
 3788W        W11190   1.902   9.445   0.290
 3789W        W11191   2.838   9.365   2.133
 3790W        W11192  14.935   0.160   9.726
 3791W        W11193   1.415   1.684   7.934
 3792W        W11194  10.538   1.675   1.304
 3793W        W11195   3.498   0.833   0.148
 3794W        W11196  19.012   8.532   0.053
 3795W        W11197  14.080   0.100   0.747
 3796W        W11198   1.191   4.672   7.673
 3797W        W11199  11.836   2.089   8.860
 3798W        W11200  10.846   7.777   0.640
 3799W        W11201   0.791   6.711   0.817
 3800W        W11202   4.615   4.050   9.276
 3801W        W11203   0.423   7.907   8.325
 3802W        W11204   3.371   3.257   0.560
 3803W        W11205   2.452   0.902   8.275
 3804W        W11206  19.211   9.374   1.469
 3805W        W11207  16.395   6.261   7.850
 3806W        W11208   6.870   1.640   1.199
 3807W        W11209   0.920   3.114   9.405
 3808W        W11210  16.377   8.197   0.646
 3809W        W11211   1.731   7.284   8.733
 3810W        W11212   6.045   0.652   7.818
 3811W        W11213   4.156   1.159   1.217
 3812W        W11214   5.534   3.052   0.809
 3813W        W11215   5.280   3.660   9.582
 3814W        W11216  13.148   6.291   9.218
 3815W        W11217  12.607   9.023   8.125
 3816W        W11218  19.558   5.681   7.675
 3817W        W11219   0.192   2.183   0.546
 3818W        W11220   8.873   8.530   1.235
 3819W        W11221   0.125   4.408   1.956
 3820W        W11222   5.601   6.998   9.882
 3821W        W11223   2.449   9.113   9.506
 3822W        W11224   2.008   9.193   1.182
 3823W        W11225   5.366   2.266   8.912
 3824W        W11226  15.223   7.161   7.900
 3825W        W11227   1.933   7.335   7.684
 3826W        W11228  10.530   6.861   9.736
 3827W        W11229  18.516   8.304   2.170
 3828W        W11230  17.965   0.630   0.830
 3829W        W11231   7.147   0.646   2.361
 3830W        W11232   5.253   1.698   9.838
 3831W        W11233   4.156   2.617   2.335
 3832W        W11234  17.255   9.681   8.773
 3833W        W11235  10.182   2.586   9.263
 3834W        W11236   8.723   8.850   0.773
 3835W        W11237  15.235   0.160   9.169
 3836W        W11238   6.536   5.889   0.745
 3837W        W11239   1.365   8.984   0.899
 3838W        W11240   9.056   9.774   1.736
 3839W        W11241   9.518   0.458   8.524
 3840W        W11242  10.318   1.294   2.117
 3841W        W11243  18.545   3.094   1.234
 3842W        W11244  11.169   1.151   2.208
 3843W        W11245  14.490   2.685   9.809
 3844W        W11246   9.721   0.832   1.083
 3845W        W11247   6.408   6.347   7.730
 3846W        W11248   5.583   1.297   1.241
 3847W        W11249   9.866   8.757   0.685
 3848W        W11250  19.297   0.568   9.190
 3849W        W11251   6.569   9.834   2.300
 3850W        W11252  19.389   3.395   7.548
 3851W        W11253  13.101   2.228   9.181
 3852W        W11254   7.939   5.277   1.737
 3853W        W11255  16.267   7.234   1.454
 3854W        W11256  18.970   6.162   0.825
 3855W        W11257  15.967   0.576   9.324
 3856W        W11258   4.643   3.024   9.880
 3857W        W11259  10.583   3.461   8.232
 3858W        W11260   1.944   5.292   0.239
 3859W        W11261  10.286   7.326   9.721
 3860W        W11262   0.407   8.203   1.078
 3861W        W11263  12.025   8.266   7.943
 3862W        W11264   9.412   0.088   8.918
 3863W        W11265  17.147   8.610   9.719
 3864W        W11266  14.559   7.133   8.502
 3865W        W11267  10.575   6.495   0.968
 3866W        W11268   9.470   3.634   0.837
 3867W        W11269   3.748   6.918   0.164
 3868W        W11270   0.025   7.536   8.264
 3869W        W11271  13.803   1.624   8.341
 3870W        W11272  10.791   6.421   9.683
 3871W        W11273  11.472   6.449   1.930
 3872W        W11274   1.771   2.146   9.109
 3873W        W11275   9.791   4.061   0.135
 3874W        W11276  13.832   3.465   1.433
 3875W        W11277   7.693   4.650   0.793
 3876W        W11278   5.056   8.359   0.795
 3877W        W11279  16.649   9.578   2.628
 3878W        W11280   3.252   1.184   9.328
 3879W        W11281   0.132   0.746   0.909
 3880W        W11282   2.314   3.375   9.417
 3881W        W11283  10.070   7.590   1.916
 3882W        W11284  13.994   8.135   1.035
 3883W        W11285  16.450   0.376   9.472
 3884W        W11286   4.177   4.297   0.918
 3885W        W11287   4.711   7.763   1.559
 3886W        W11288   5.257   8.404   9.692
 3887W        W11289   4.405   7.793   9.616
 3888W        W11290  17.924   8.936   0.673
 3889W        W11291   7.124   4.352   0.354
 3890W        W11292  12.619   1.421   8.921
 3891W        W11293  13.615   1.148   1.418
 3892W        W11294   5.012   2.568   1.569
 3893W        W11295   7.055   3.937   1.225
 3894W        W11296  14.273   7.989   2.032
 3895W        W11297   0.918   6.567   1.646
 3896W        W11298  13.546   7.978   0.853
 3897W        W11299  11.618   7.435   9.347
 3898W        W11300  19.166   7.012   1.701
 3899W        W11301  11.150   8.367   9.429
 3900W        W11302  11.410   8.698   9.153
 3901W        W11303   0.759   7.089   9.199
 3902W        W11304   4.183   8.900   0.910
 3903W        W11305   8.186   7.890   0.548
 3904W        W11306   9.501   2.458   0.331
 3905W        W11307  17.150   9.416   1.046
 3906W        W11308  15.496   8.848   9.728
 3907W        W11309  16.258   8.765   1.394
 3908W        W11310  12.249   2.881   9.695
 3909W        W11311   3.969   4.426   0.244
 3910W        W11312   3.355   5.864   7.763
 3911W        W11313   2.905   9.586   8.528
 3912W        W11314   0.940   4.625   1.828
 3913W        W11315  11.321   5.276   1.253
 3914W        W11316  11.318   6.832   1.651
 3915W        W11317  14.186   7.278   9.276
 3916W        W11318  16.453   3.373   1.736
 3917W        W11319   6.145   5.134   8.385
 3918W        W11320  18.823   3.689   8.371
 3919W        W11321  13.852   5.794   9.343
 3920W        W11322  11.420   1.682   8.479
 3921W        W11323  10.279   3.105   9.469
 3922W        W11324   6.923   5.698   8.036
 3923W        W11325   6.601   5.403   0.789
 3924W        W11326  10.094   1.838   9.955
 3925W        W11327   3.835   7.244   8.731
 3926W        W11328  18.476   5.923   9.312
 3927W        W11329  19.716   3.641   7.947
 3928W        W11330   8.301   3.976   8.855
 3929W        W11331  15.992   5.333   0.791
 3930W        W11332  17.555   4.940   0.834
 3931W        W11333  16.058   8.288   9.205
 3932W        W11334  16.706   5.118   9.328
 3933W        W11335   5.387   5.914   9.497
 3934W        W11336  14.732   3.443   2.061
 3935W        W11337   8.057   8.281   0.840
 3936W        W11338  18.661   5.688   0.833
 3937W        W11339  18.396   1.981   2.017
 3938W        W11340  18.203   5.900   8.899
 3939W        W11341  10.749   6.432   8.881
 3940W        W11342   1.290   8.113   8.506
 3941W        W11343   4.354   5.708   8.046
 3942W        W11344  15.722   9.103   8.954
 3943W        W11345  17.643   6.769   8.945
 3944W        W11346   0.573   7.730   0.939
 3945W        W11347  19.207   6.325   0.379
 3946W        W11348  11.513   3.765   1.631
 3947W        W11349   3.907   0.045   9.773
 3948W        W11350   0.268   0.981   1.344
 3949W        W11351  10.255   5.752   1.846
 3950W        W11352  11.908   1.649   9.330
 3951W        W11353  10.198   9.429   8.095
 3952W        W11354  18.123   9.046   2.454
 3953W        W11355   1.656   7.690   1.788
 3954W        W11356  19.405   6.526   1.683
 3955W        W11357  14.391   1.766   0.710
 3956W        W11358   2.494   3.478   0.146
 3957W        W11359  13.676   0.360   7.893
 3958W        W11360   1.347   3.090   1.489
 3959W        W11361  14.308   7.791   9.227
 3960W        W11362   3.482   5.097   0.645
 3961W        W11363   6.675   2.621   8.747
 3962W        W11364  14.244   0.888   9.723
 3963W        W11365   9.502   6.669   9.382
 3964W        W11366  12.968   8.607   8.769
 3965W        W11367  12.433   4.218   9.474
 3966W        W11368   1.104   6.503   7.990
 3967W        W11369   4.821   9.912   8.456
 3968W        W11370   6.910   1.543   9.886
 3969W        W11371  13.920   6.743   9.571
 3970W        W11372   5.746   5.778   0.386
 3971W        W11373  15.999   1.091   9.117
 3972W        W11374  10.961   2.518   8.064
 3973W        W11375   8.160   7.592   1.939
 3974W        W11376  11.337   8.016   2.616
 3975W        W11377  18.289   2.958   8.823
 3976W        W11378   2.384   3.259   2.266
 3977W        W11379   9.325   8.468   1.470
 3978W        W11380  17.265   2.972   9.049
 3979W        W11381   9.487   3.165   1.075
 3980W        W11382   5.388   4.531   0.630
 3981W        W11383   5.299   3.757   1.380
 3982W        W11384  15.117   2.836   8.039
 3983W        W11385   8.038   2.568   1.455
 3984W        W11386  17.764   0.851   2.527
 3985W        W11387   4.425   1.681   9.299
 3986W        W11388  16.471   9.936   8.680
 3987W        W11389  16.551   0.386   0.852
 3988W        W11390  14.032   0.982   1.180
 3989W        W11391  17.154   2.467   8.909
 3990W        W11392   2.239   6.753   9.416
 3991W        W11393  13.112   1.115   8.076
 3992W        W11394   0.656   5.246   2.157
 3993W        W11395  16.595   3.417   1.235
 3994W        W11396  13.416   0.708   8.152
 3995W        W11397  10.903   3.495   0.838
 3996W        W11398   9.282   3.285   0.107
 3997W        W11399   9.516   6.961   8.762
 3998W        W11400  18.890   2.103   2.090
 3999W        W11401   0.779   0.088   1.861
 4000W        W11402  11.439   3.744   2.173
 4001W        W11403  13.094   5.903   9.843
 4002W        W11404   8.419   2.728   8.539
 4003W        W11405   3.453   4.407   0.323
 4004W        W11406   9.090   4.858   1.875
 4005W        W11407  18.657   3.583   1.353
 4006W        W11408   9.445   1.525   0.439
 4007W        W11409  18.695   4.469   2.448
 4008W        W11410  15.426   4.349   1.623
 4009W        W11411   9.137   4.691   9.984
 4010W        W11412   4.791   7.304   0.788
 4011W        W11413  19.340   4.856   7.621
 4012W        W11414   2.327   2.311   8.538
 4013W        W11415   6.852   4.806   7.800
 4014W        W11416  18.639   0.821   1.968
 4015W        W11417   4.073   9.624   9.580
 4016W        W11418   1.267   5.847   0.310
 4017W        W11419   6.253   9.429   9.697
 4018W        W11420  17.881   0.991   9.986
 4019W        W11421  19.925   4.714   9.769
 4020W        W11422  15.726   8.874   0.184
 4021W        W11423  18.920   0.839   1.543
 4022W        W11424   8.272   3.137   0.173
 4023W        W11425   7.677   4.052   1.989
 4024W        W11426  13.501   8.353   1.232
 4025W        W11427  13.281   1.838   2.035
 4026W        W11428  15.589   9.815   8.436
 4027W        W11429  10.517   8.384   1.200
 4028W        W11430   0.177   4.273   9.811
 4029W        W11431   5.025   8.910   9.594
 4030W        W11432   6.006   6.406   2.062
 4031W        W11433  10.300   6.613   8.387
 4032W        W11434   3.363   9.095   9.971
 4033W        W11435   4.209   2.179   0.312
 4034W        W11436   3.101   8.661   9.966
 4035W        W11437   5.262   4.550   9.579
 4036W        W11438  12.505   0.904   8.562
 4037W        W11439   5.596   0.329   9.267
 4038W        W11440   1.952   1.196   1.705
 4039W        W11441  12.589   1.113   9.354
 4040W        W11442   6.738   8.282   8.994
 4041W        W11443  14.395   3.454   1.625
 4042W        W11444  17.858   7.275   8.747
 4043W        W11445   2.271   5.660   9.198
 4044W        W11446  10.309   0.825   9.627
 4045W        W11447   9.863   8.081   8.475
 4046W        W11448   5.173   0.894   7.929
 4047W        W11449   1.906   1.350   9.242
 4048W        W11450  13.729   7.424   8.451
 4049W        W11451  19.936   5.174   8.949
 4050W        W11452  19.369   8.973   7.948
 4051W        W11453   0.382   9.096   9.870
 4052W        W11454   6.973   5.220   1.498
 4053W        W11455  14.388   7.600   9.687
 4054W        W11456   2.045   7.013   8.113
 4055W        W11457  12.481   2.143   2.503
 4056W        W11458   0.051   6.807   0.336
 4057W        W11459   5.081   1.261   9.682
 4058W        W11460  10.913   4.713   9.451
 4059W        W11461   6.850   9.389   2.048
 4060W        W11462  15.072   3.917   8.950
 4061W        W11463  19.975   5.929   0.246
 4062W        W11464  14.070   3.751   0.178
 4063W        W11465  19.463   3.327   1.804
 4064W        W11466  13.056   3.404   8.344
 4065W        W11467  11.421   1.608   1.267
 4066W        W11468  16.744   5.422   8.026
 4067W        W11469  15.809   4.082   9.449
 4068W        W11470   9.090   4.268   9.345
 4069W        W11471   3.507   5.653   9.035
 4070W        W11472  16.212   2.123   8.760
 4071W        W11473   1.160   5.569   8.107
 4072W        W11474   3.206   6.545   9.750
 4073W        W11475  14.045   0.090   8.162
 4074W        W11476   6.679   4.701   1.880
 4075W        W11477  12.508   7.767   2.746
 4076W        W11478  11.285   6.070   8.427
 4077W        W11479   3.606   6.291   2.032
 4078W        W11480   2.089   6.211   8.425
 4079W        W11481   3.265   1.034   1.356
 4080W        W11482   5.852   4.562   0.890
 4081W        W11483  13.803   9.346   9.642
 4082W        W11484  19.884   9.500   8.002
 4083W        W11485   1.645   2.983   8.923
 4084W        W11486  10.362   6.747   0.544
 4085W        W11487   6.249   2.433   0.133
 4086W        W11488   5.310   5.031   1.476
 4087W        W11489   9.055   3.001   9.721
 4088W        W11490   4.855   5.689   7.179
 4089W        W11491   6.484   7.540   0.477
 4090W        W11492   4.869   9.959   1.778
 4091W        W11493  15.191   9.313   7.314
 4092W        W11494  14.864   4.123   1.200
 4093W        W11495   3.038   7.458   2.136
 4094W        W11496  14.564   6.237   1.883
 4095W        W11497   4.607   8.975   8.756
 4096W        W11498  16.889   3.599   1.628
 4097W        W11499   6.750   8.254   8.466
 4098W        W11500  18.486   6.842   0.481
 4099W        W11501  12.737   4.042   2.115
 4100W        W11502   8.934   4.934   1.375
 4101W        W11503  14.657   3.867   9.817
 4102W        W11504   2.882   7.169   1.307
 4103W        W11505  12.536   8.687   8.506
 4104W        W11506  12.904   9.613   1.097
 4105W        W11507   6.246   6.751   8.019
 4106W        W11508  13.403   6.290   9.692
 4107W        W11509   8.967   9.333   8.589
 4108W        W11510  16.860   8.592   0.141
 4109W        W11511  10.056   7.778   9.728
 4110W        W11512   2.093   1.965   2.013
 4111W        W11513   2.665   0.294   8.024
 4112W        W11514  15.184   9.221   1.368
 4113W        W11515   9.650   5.595   8.848
 4114W        W11516  14.131   4.771   1.750
 4115W        W11517   1.884   2.572   1.145
 4116W        W11518  14.332   7.973   8.761
 4117W        W11519  11.888   1.643   1.456
 4118W        W11520   8.685   6.215   0.357
 4119W        W11521   9.782   0.002   1.345
 4120W        W11522  11.318   5.994   1.145
 4121W        W11523  15.914   0.284   0.899
 4122W        W11524   3.688   7.330   0.768
 4123W        W11525  16.503   1.892   2.013
 4124W        W11526  12.194   4.693   7.746
 4125W        W11527  16.011   7.972   2.540
 4126W        W11528   5.990   7.413   1.321
 4127W        W11529   1.614   8.198   1.789
 4128W        W11530   6.744   9.311   9.730
 4129W        W11531  15.004   0.121   0.588
 4130W        W11532  10.749   3.532   1.334
 4131W        W11533  18.680   1.620   8.440
 4132W        W11534  17.229   8.236   0.884
 4133W        W11535   3.131   7.472   1.626
 4134W        W11536   3.282   9.006   8.916
 4135W        W11537  15.665   0.370   8.836
 4136W        W11538  19.956   3.468   1.857
 4137W        W11539   3.573   5.536   0.989
 4138W        W11540   3.742   1.358   1.520
 4139W        W11541  11.290   5.134   0.333
 4140W        W11542  19.893   8.305   1.124
 4141W        W11543  11.360   4.185   1.897
 4142W        W11544   1.848   1.929   2.465
 4143W        W11545   6.448   0.327   1.060
 4144W        W11546  12.827   0.088   1.872
 4145W        W11547   6.938   1.465   9.370
 4146W        W11548  15.109   0.639   7.868
 4147W        W11549  13.462   8.907   0.894
 4148W        W11550  17.820   6.572   2.390
 4149W        W11551  19.143   1.615   1.128
 4150W        W11552  16.721   8.622   8.181
 4151W        W11553   5.449   7.866   2.309
 4152W        W11554  17.839   5.360   0.792
 4153W        W11555  18.820   5.431   1.692
 4154W        W11556   4.469   7.234   9.458
 4155W        W11557   1.052   6.723   0.211
 4156W        W11558  14.950   4.799   2.244
 4157W        W11559  11.608   6.009   1.575
 4158W        W11560  10.605   5.956   0.918
 4159W        W11561  10.551   1.393   9.817
 4160W        W11562  11.252   0.118   9.840
 4161W        W11563  19.684   4.401   9.344
 4162W        W11564  19.303   2.376   8.828
 4163W        W11565   9.132   1.276   8.452
 4164W        W11566  14.389   4.547   8.755
 4165W        W11567   3.388   2.984   1.508
 4166W        W11568  19.965   5.023   0.231
 4167W        W11569   8.360   5.827   0.173
 4168W        W11570   5.406   4.566   0.094
 4169W        W11571   6.319   7.687   7.959
 4170W        W11572  10.229   9.188   0.621
 4171W        W11573  19.137   1.583   7.742
 4172W        W11574   1.411   3.011   0.974
 4173W        W11575   4.782   2.951   1.250
 4174W        W11576   1.617   6.305   9.727
 4175W        W11577   4.063   3.771   8.919
 4176W        W11578   5.550   5.731   7.930
 4177W        W11579  17.388   7.739   0.808
 4178W        W11580  16.269   5.364   2.262
 4179W        W11581   0.351   0.226   0.468
 4180W        W11582  14.048   4.601   0.204
 4181W        W11583  18.420   6.332   8.544
 4182W        W11584   7.499   5.550   0.737
 4183W        W11585   5.894   8.373   8.389
 4184W        W11586  10.145   4.379   8.451
 4185W        W11587  15.657   4.552   1.201
 4186W        W11588   3.601   9.156   1.274
 4187W        W11589  19.482   5.949   9.385
 4188W        W11590  11.942   3.953   8.836
 4189W        W11591   2.039   5.145   1.961
 4190W        W11592   6.611   3.039   8.440
 4191W        W11593   3.603   7.272   1.663
 4192W        W11594   2.887   9.424   1.156
 4193W        W11595   7.725   2.520   9.154
 4194W        W11596  13.366   5.773   0.294
 4195W        W11597   3.304   4.427   1.862
 4196W        W11598   5.636   7.379   7.578
 4197W        W11599   8.096   8.760   0.045
 4198W        W11600   0.121   8.711   2.305
 4199W        W11601  12.223   4.603   0.140
 4200W        W11602  17.399   4.590   8.117
 4201W        W11603   9.708   1.837   1.903
 4202W        W11604   4.426   6.133   7.705
 4203W        W11605  19.612   0.751   0.746
 4204W        W11606  11.914   0.440   2.124
 4205W        W11607  16.711   2.522   0.987
 4206W        W11608  18.890   6.036   7.926
 4207W        W11609  13.723   2.803   8.831
 4208W        W11610   9.401   5.162   9.975
 4209W        W11611  15.668   1.986   8.068
 4210W        W11612   9.214   6.647   7.984
 4211W        W11613  10.736   3.036   9.730
 4212W        W11614   4.395   9.962   9.851
 4213W        W11615  12.101   3.595   1.161
 4214W        W11616  19.188   7.926   1.573
 4215W        W11617   2.665   3.948   0.217
 4216W        W11618   3.084   2.668   1.972
 4217W        W11619  13.351   2.853   2.134
 4218W        W11620   0.289   9.835   0.847
 4219W        W11621   0.415   4.379   0.557
 4220W        W11622   8.204   8.236   2.375
 4221W        W11623  16.085   3.909   0.717
 4222W        W11624   7.896   7.994   2.049
 4223W        W11625  11.212   2.171   7.790
 4224W        W11626  10.678   3.852   8.985
 4225W        W11627  10.265   4.256   7.714
 4226W        W11628  12.160   7.431   1.973
 4227W        W11629  12.626   6.490   1.005
 4228W        W11630  12.541   5.010   8.523
 4229W        W11631   5.015   1.723   1.779
 4230W        W11632  13.016   3.123   9.726
 4231W        W11633   3.286   2.178   1.097
 4232W        W11634   2.711   4.051   8.322
 4233W        W11635  19.532   1.399   9.921
 4234W        W11636  12.284   2.623   0.921
 4235W        W11637   2.209   9.370   9.077
 4236W        W11638  11.395   3.705   2.694
 4237W        W11639  16.966   3.000   0.531
 4238W        W11640   1.664   9.255   8.208
 4239W        W11641  14.015   0.255   0.248
 4240W        W11642  18.459   8.141   9.310
 4241W        W11643  16.089   4.264   0.306
 4242W        W11644   1.213   2.865   0.525
 4243W        W11645   7.631   7.823   9.818
 4244W        W11646  11.161   2.930   0.050
 4245W        W11647   2.442   2.621   8.978
 4246W        W11648   9.335   3.184   2.099
 4247W        W11649  12.375   7.302   1.355
 4248W        W11650  15.798   8.307   0.744
 4249W        W11651  19.948   7.004   9.873
 4250W        W11652   6.764   8.560   7.876
 4251W        W11653   7.684   0.843   9.237
 4252W        W11654  17.641   5.854   1.080
 4253W        W11655   7.111   7.132   0.078
 4254W        W11656  14.058   2.443   8.957
 4255W        W11657   4.760   5.594   2.041
 4256W        W11658   3.083   0.258   8.365
 4257W        W11659  18.028   8.450   1.413
 4258W        W11660   0.571   4.132   1.916
 4259W        W11661  17.506   8.226   9.761
 4260W        W11662  13.339   4.056   9.368
 4261W        W11663  12.632   4.635   1.388
 4262W        W11664   2.608   0.424   1.067
 4263W        W11665  10.158   1.576   9.526
 4264W        W11666  10.032   9.170   9.801
 4265W        W11667  17.829   6.677   1.242
 4266W        W11668  16.768   0.068   2.634
 4267W        W11669  16.704   9.528   0.820
 4268W        W11670   6.065   5.151   7.875
 4269W        W11671   7.720   0.337   9.408
 4270W        W11672   3.157   9.182   0.773
 4271W        W11673   6.183   7.646   1.725
 4272W        W11674   8.432   0.899   8.937
 4273W        W11675   8.409   7.780   7.090
 4274W        W11676  16.340   7.732   1.099
 4275W        W11677   2.865   8.604   8.817
 4276W        W11678  17.644   2.611   8.827
 4277W        W11679  18.697   7.748   9.550
 4278W        W11680  19.234   5.281   1.933
 4279W        W11681   8.821   1.542   1.734
 4280W        W11682  13.737   7.053   9.170
 4281W        W11683   7.089   7.009   8.532
 4282W        W11684   6.859   8.744   8.356
 4283W        W11685   9.861   7.732   0.580
 4284W        W11686  16.416   9.020   8.722
 4285W        W11687  10.371   7.023   0.959
 4286W        W11688  12.876   0.949   1.302
 4287W        W11689  19.404   5.135   8.861
 4288W        W11690  14.731   2.080   7.803
 4289W        W11691   3.923   4.965   7.693
 4290W        W11692  16.658   6.403   1.487
 4291W        W11693   2.507   8.419   0.684
 4292W        W11694  15.166   7.520   9.224
 4293W        W11695   1.923   7.115   0.616
 4294W        W11696  19.684   3.942   9.111
 4295W        W11697   8.905   2.394   2.143
 4296W        W11698   0.973   6.191   0.892
 4297W        W11699  14.502   8.728   7.674
 4298W        W11700  15.241   3.936   0.274
 4299W        W11701  18.861   0.353   1.802
 4300W        W11702   8.953   3.731   0.178
 4301W        W11703  12.398   0.862   0.012
 4302W        W11704   6.127   4.407   8.019
 4303W        W11705   0.856   8.501   0.349
 4304W        W11706   5.986   2.050   9.933
 4305W        W11707  14.227   2.234   9.906
 4306W        W11708  18.917   4.007   0.097
 4307W        W11709  17.481   8.006   1.275
 4308W        W11710  15.363   8.811   7.842
 4309W        W11711   2.892   8.875   2.187
 4310W        W11712  16.613   8.170   9.251
 4311W        W11713   3.073   3.515   1.423
 4312W        W11714  18.455   7.423   1.878
 4313W        W11715  11.306   1.412   0.111
 4314W        W11716  11.415   8.624   0.846
 4315W        W11717   0.138   6.475   2.071
 4316W        W11718  13.501   4.113   7.940
 4317W        W11719  15.370   9.745   0.428
 4318W        W11720  11.621   9.006   0.432
 4319W        W11721  17.539   0.110   1.646
 4320W        W11722  15.516   9.881   0.935
 4321W        W11723  19.381   1.461   9.279
 4322W        W11724   3.414   4.891   9.452
 4323W        W11725   0.165   5.549   8.208
 4324W        W11726  16.287   3.726   0.280
 4325W        W11727  11.528   8.694   9.638
 4326W        W11728   6.578   4.141   1.280
 4327W        W11729   3.638   2.531   8.551
 4328W        W11730  18.990   3.755   0.782
 4329W        W11731   7.177   4.760   0.698
 4330W        W11732  14.829   7.271   0.700
 4331W        W11733  18.436   0.241   9.598
 4332W        W11734   7.961   2.111   8.835
 4333W        W11735   6.554   8.999   1.754
 4334W        W11736  17.833   3.332   9.653
 4335W        W11737  11.474   2.484   8.768
 4336W        W11738   8.530   5.881   1.314
 4337W        W11739  18.707   6.033   8.861
 4338W        W11740   3.980   9.373   0.998
 4339W        W11741  18.236   7.906   9.734
 4340W        W11742   2.580   0.747   7.786
 4341W        W11743   3.094   4.648   9.813
 4342W        W11744   7.441   6.648   0.960
 4343W        W11745  13.919   4.512   8.523
 4344W        W11746   1.843   6.828   2.386
 4345W        W11747   2.226   2.536   1.524
 4346W        W11748  12.536   3.752   0.250
 4347W        W11749  10.242   9.974   7.951
 4348W        W11750   9.909   9.749   9.368
 4349W        W11751   8.897   4.454   1.644
 4350W        W11752   4.814   7.754   0.534
 4351W        W11753  10.151   1.460   8.523
 4352W        W11754  16.196   3.550   2.139
 4353W        W11755   1.635   0.962   2.069
 4354W        W11756   0.151   2.802   0.867
 4355W        W11757   7.565   4.078   9.465
 4356W        W11758   7.295   1.136   2.379
 4357W        W11759  17.052   9.441   7.970
 4358W        W11760   3.214   2.488   1.514
 4359W        W11761  17.020   6.608   1.145
 4360W        W11762   8.653   2.548   8.099
 4361W        W11763  19.422   7.458   1.642
 4362W        W11764  11.841   6.387   7.956
 4363W        W11765  11.558   5.998   9.807
 4364W        W11766   4.560   4.420   8.453
 4365W        W11767   1.109   7.053   0.619
 4366W        W11768  13.219   2.660   9.440
 4367W        W11769  10.249   6.421   9.714
 4368W        W11770   7.488   1.243   8.610
 4369W        W11771  12.543   9.283   1.821
 4370W        W11772  18.403   0.311   9.058
 4371W        W11773  17.537   3.776   1.964
 4372W        W11774  13.915   6.323   8.819
 4373W        W11775  12.878   6.527   0.550
 4374W        W11776  15.286   0.194   0.151
 4375W        W11777   8.038   1.083   1.265
 4376W        W11778   0.012   9.088   7.708
 4377W        W11779   7.499   4.901   8.881
 4378W        W11780   5.529   8.186   0.891
 4379W        W11781   6.606   2.077   1.039
 4380W        W11782  19.573   9.292   0.558
 4381W        W11783   2.141   6.502   8.871
 4382W        W11784   7.953   0.324   1.366
 4383W        W11785  12.588   9.362   9.474
 4384W        W11786  17.986   3.625   7.868
 4385W        W11787  15.786   4.911   9.605
 4386W        W11788  19.268   6.878   8.631
 4387W        W11789  13.504   7.411   2.107
 4388W        W11790  11.033   5.728   1.525
 4389W        W11791  18.944   8.368   1.707
 4390W        W11792  18.646   9.402   0.901
 4391W        W11793   1.889   4.325   9.376
 4392W        W11794   3.920   4.127   9.784
 4393W        W11795   3.800   3.249   9.731
 4394W        W11796  18.704   0.622   8.024
 4395W        W11797  13.412   9.388   1.124
 4396W        W11798  11.123   2.060   0.784
 4397W        W11799  16.728   6.509   8.583
 4398W        W11800  15.783   0.347   0.203
 4399W        W11801   5.093   5.700   8.178
 4400W        W11802   2.429   6.897   1.253
 4401W        W11803  18.255   7.657   9.284
 4402W        W11804   4.591   6.397   8.525
 4403W        W11805  17.537   4.813   9.387
 4404W        W11806  11.014   6.954   1.236
 4405W        W11807   0.118   1.535   8.293
 4406W        W11808  15.483   0.606   1.072
 4407W        W11809   8.332   5.349   2.112
 4408W        W11810   6.189   4.629   8.497
 4409W        W11811  14.240   6.606   1.795
 4410W        W11812   7.146   1.971   9.234
 4411W        W11813   4.285   7.387   9.919
 4412W        W11814   8.297   6.753   1.434
 4413W        W11815   6.172   5.097   9.390
 4414W        W11816   5.805   3.684   1.402
 4415W        W11817  14.513   0.185   0.465
 4416W        W11818  13.021   0.690   8.833
 4417W        W11819  13.265   6.985   0.317
 4418W        W11820  19.774   2.377   1.370
 4419W        W11821  19.791   8.925   9.273
 4420W        W11822  12.873   4.079   1.075
 4421W        W11823   1.658   8.607   0.603
 4422W        W11824   4.240   9.712   9.042
 4423W        W11825   8.570   1.689   0.155
 4424W        W11826   4.858   4.827   8.226
 4425W        W11827   1.966   9.410   7.682
 4426W        W11828   0.215   8.232   1.544
 4427W        W11829   2.937   9.967   1.130
 4428W        W11830  18.479   5.943   8.223
 4429W        W11831   3.457   7.344   0.317
 4430W        W11832   2.812   3.117   9.776
 4431W        W11833  14.288   1.824   1.210
 4432W        W11834  14.582   6.821   0.831
 4433W        W11835  11.709   8.334   1.796
 4434W        W11836   4.670   1.659   8.849
 4435W        W11837   0.670   6.699   9.510
 4436W        W11838  18.437   0.575   0.629
 4437W        W11839   9.206   1.776   1.956
 4438W        W11840   5.701   2.948   8.765
 4439W        W11841  10.241   1.089   0.063
 4440W        W11842   6.366   0.292   0.515
 4441W        W11843  17.042   2.186   0.756
 4442W        W11844  10.579   9.199   9.108
 4443W        W11845   3.995   9.663   1.958
 4444W        W11846  15.158   6.567   1.994
 4445W        W11847   6.570   5.320   8.597
 4446W        W11848  16.580   2.086   9.440
 4447W        W11849  16.131   1.239   0.406
 4448W        W11850   1.589   0.960   8.013
 4449W        W11851   1.038   1.933   1.950
 4450W        W11852  17.755   8.112   0.859
 4451W        W11853  12.613   5.158   1.291
 4452W        W11854  18.519   2.034   9.395
 4453W        W11855  13.019   8.740   1.140
 4454W        W11856  16.647   0.428   8.474
 4455W        W11857  19.213   3.304   9.083
 4456W        W11858  10.267   0.764   7.467
 4457W        W11859   2.909   3.243   2.199
 4458W        W11860   0.703   0.710   8.519
 4459W        W11861   5.624   0.492   2.219
 4460W        W11862  17.684   9.284   0.407
 4461W        W11863   9.125   0.899   8.090
 4462W        W11864   5.687   3.891   8.661
 4463W        W11865   0.614   9.496   1.348
 4464W        W11866   4.113   9.585   8.410
 4465W        W11867  12.935   2.609   1.954
 4466W        W11868  19.152   7.329   8.419
 4467W        W11869  14.137   1.009   8.140
 4468W        W11870   2.732   5.475   9.006
 4469W        W11871  19.209   1.529   8.801
 4470W        W11872  17.674   4.925   2.376
 4471W        W11873   3.410   7.011   8.864
 4472W        W11874  15.647   1.366   2.195
 4473W        W11875  15.178   3.108   8.473
 4474W        W11876  11.022   8.834   7.754
 4475W        W11877  15.385   9.364   8.655
 4476W        W11878  16.626   1.278   0.464
 4477W        W11879   8.485   8.631   8.713
 4478W        W11880  17.729   2.763   0.801
 4479W        W11881  10.326   3.259   9.955
 4480W        W11882  18.265   1.734   9.736
 4481W        W11883   3.159   3.924   8.533
 4482W        W11884   0.890   3.712   1.856
 4483W        W11885  17.721   0.658   8.141
 4484W        W11886   2.791   0.802   1.397
 4485W        W11887   8.091   3.921   2.321
 4486W        W11888   6.790   6.154   8.498
 4487W        W11889   9.417   9.653   9.214
 4488W        W11890   5.902   8.044   7.997
 4489W        W11891  10.160   8.875   8.019
 4490W        W11892  16.992   6.552   2.362
 4491W        W11893   6.999   3.881   0.174
 4492W        W11894  15.040   1.708   1.578
 4493W        W11895  15.782   6.197   0.046
 4494W        W11896  15.848   5.072   7.728
 4495W        W11897  18.249   6.863   9.771
 4496W        W11898   6.256   0.930   9.397
 4497W        W11899   3.635   1.821   8.050
 4498W        W11900   4.000   0.323   7.883
 4499W        W11901   4.695   5.326   7.558
 4500W        W11902   6.455   5.891   7.929
 4501W        W11903  15.054   6.729   9.066
 4502W        W11904   2.663   3.006   0.259
 4503W        W11905   9.772   3.413   7.892
 4504W        W11906   9.541   3.871   8.006
 4505W        W11907  18.382   1.006   8.061
 4506W        W11908  18.913   7.479   1.681
 4507W        W11909   5.239   5.130   8.870
 4508W        W11910  17.076   2.959   0.038
 4509W        W11911  16.207   9.049   0.250
 4510W        W11912   9.406   9.568   8.709
 4511W        W11913   3.011   8.427   0.607
 4512W        W11914  12.366   6.514   1.472
 4513W        W11915  12.830   9.334   7.781
 4514W        W11916   9.286   0.162   2.020
 4515W        W11917   3.352   2.550   9.363
 4516W        W11918   6.643   2.191   8.439
 4517W        W11919  18.137   3.578   1.183
 4518W        W11920   7.109   8.420   2.238
 4519W        W11921   7.449   7.351   1.464
 4520W        W11922  14.975   8.064   8.387
 4521W        W11923  15.632   1.087   1.301
 4522W        W11924  14.902   5.323   7.902
 4523W        W11925  18.779   9.871   9.472
 4524W        W11926   5.128   9.615   8.169
 4525W        W11927   3.957   0.482   9.450
 4526W        W11928   9.015   1.055   0.897
 4527W        W11929  18.503   4.951   0.350
 4528W        W11930   5.584   9.523   0.680
 4529W        W11931  18.186   3.558   0.449
 4530W        W11932  11.237   8.329   8.416
 4531W        W11933   7.389   0.516   0.599
 4532W        W11934  12.724   7.246   9.367
 4533W        W11935   8.410   2.269   1.010
 4534W        W11936   3.270   4.246   8.900
 4535W        W11937  10.733   8.405   8.499
 4536W        W11938   4.646   9.065   7.916
 4537W        W11939  16.209   0.372   0.472
 4538W        W11940   8.061   1.885   0.252
 4539W        W11941   6.618   3.885   8.526
 4540W        W11942   5.123   7.825   0.953
 4541W        W11943   5.345   9.164   7.999
 4542W        W11944   0.797   8.658   7.742
 4543W        W11945   4.125   4.614   8.048
 4544W        W11946   6.666   8.203   2.384
 4545W        W11947  12.027   2.197   2.223
 4546W        W11948  13.066   8.353   2.460
 4547W        W11949   5.201   8.519   1.775
 4548W        W11950   2.940   9.988   9.798
 4549W        W11951  12.470   8.343   8.885
 4550W        W11952  19.785   2.151   2.184
 4551W        W11953  16.058   1.921   7.758
 4552W        W11954  16.251   0.825   0.720
 4553W        W11955   0.122   8.498   0.710
 4554W        W11956  15.482   2.195   0.049
 4555W        W11957  12.230   5.484   7.817
 4556W        W11958  12.995   3.866   9.049
 4557W        W11959   7.724   3.636   1.716
 4558W        W11960  18.507   2.585   9.098
 4559W        W11961  17.323   1.823   0.508
 4560W        W11962   9.235   5.746   2.008
 4561W        W11963  12.167   2.475   7.621
 4562W        W11964  10.831   0.051   8.607
 4563W        W11965   2.912   5.709   7.997
 4564W        W11966   4.221   3.184   0.162
 4565W        W11967   5.912   4.166   2.327
 4566W        W11968   5.627   3.050   9.926
 4567W        W11969  14.953   7.218   8.882
 4568W        W11970   2.444   1.230   7.588
 4569W        W11971  19.294   4.783   1.836
 4570W        W11972   2.327   9.658   7.357
 4571W        W11973  13.438   7.903   7.766
 4572W        W11974  14.611   0.378   1.944
 4573W        W11975  17.555   8.542   1.177
 4574W        W11976   9.554   0.627   8.009
 4575W        W11977  15.179   4.790   1.721
 4576W        W11978  10.563   6.134   1.745
 4577W        W11979  18.529   7.639   0.553
 4578W        W11980   8.126   2.702   0.898
 4579W        W11981   5.746   4.831   7.676
 4580W        W11982   6.716   7.827   8.751
 4581W        W11983  16.754   6.914   9.471
 4582W        W11984   8.143   2.674   0.001
 4583W        W11985  18.736   5.523   8.342
 4584W        W11986   2.771   8.085   0.949
 4585W        W11987   0.797   1.241   8.141
 4586W        W11988   2.189   4.886   8.584
 4587W        W11989   4.849   0.721   1.227
 4588W        W11990   9.088   8.065   1.168
 4589W        W11991  11.569   2.997   8.913
 4590W        W11992   4.869   2.597   8.683
 4591W        W11993  13.676   4.697   1.027
 4592W        W11994  13.327   1.041   2.430
 4593W        W11995  15.488   1.916   1.498
 4594W        W11996  19.039   9.335   8.598
 4595W        W11997   7.756   3.550   1.199
 4596W        W11998  16.602   3.645   9.513
 4597W        W11999  12.718   0.043   8.276
 4598W        W12000   4.875   2.501   1.001
 4599W        W12001  10.621   8.259   0.713
 4600W        W12002  18.750   5.519   8.859
 4601W        W12003   2.221   4.740   2.274
 4602W        W12004   2.974   1.069   1.799
 4603W        W12005   5.761   4.717   8.760
 4604W        W12006   9.129   2.828   0.298
 4605W        W12007   1.556   8.228   0.919
 4606W        W12008   4.945   0.427   7.925
 4607W        W12009   1.577   1.609   0.036
 4608W        W12010  12.850   4.785   0.942
 4609W        W12011  13.448   2.198   9.547
 4610W        W12012   5.084   8.170   2.144
 4611W        W12013   8.700   4.067   8.500
 4612W        W12014  17.733   9.772   7.986
 4613W        W12015   0.154   2.351   8.538
 4614W        W12016   0.686   4.397   9.982
 4615W        W12017  17.530   3.382   7.828
 4616W        W12018   7.224   3.183   9.270
 4617W        W12019  18.557   9.198   0.437
 4618W        W12020   2.039   6.980   9.011
 4619W        W12021   0.753   4.775   0.439
 4620W        W12022  17.252   9.030   0.258
 4621W        W12023   9.998   3.818   2.415
 4622W        W12024   1.797   3.404   9.264
 4623W        W12025  16.675   6.540   9.080
 4624W        W12026  16.728   5.369   9.781
 4625W        W12027   0.346   7.785   9.790
 4626W        W12028  11.785   4.668   1.061
 4627W        W12029   1.119   1.624   0.958
 4628W        W12030   1.643   3.407   0.723
 4629W        W12031  11.492   5.968   2.049
 4630W        W12032  13.381   5.667   0.830
 4631W        W12033  13.774   0.879   9.899
 4632W        W12034  10.486   7.290   1.376
 4633W        W12035  16.711   7.420   1.336
 4634W        W12036  11.028   6.012   8.864
 4635W        W12037   9.878   6.663   1.989
 4636W        W12038   2.794   7.197   0.087
 4637W        W12039  11.065   7.566   1.949
 4638W        W12040   9.610   2.765   0.722
 4639W        W12041  15.444   5.078   9.977
 4640W        W12042   4.798   0.808   8.284
 4641W        W12043   4.023   8.888   1.399
 4642W        W12044   7.981   5.444   8.037
 4643W        W12045  12.285   8.625   2.393
 4644W        W12046  11.662   8.174   0.703
 4645W        W12047  16.324   2.482   0.206
 4646W        W12048   9.920   4.787   9.405
 4647W        W12049  16.321   1.634   8.613
 4648W        W12050   3.909   4.960   8.637
 4649W        W12051  13.035   7.532   7.700
 4650W        W12052   3.794   2.136   1.107
 4651W        W12053   5.392   9.282   8.492
 4652W        W12054   5.995   7.300   9.114
 4653W        W12055   0.794   9.847   0.968
 4654W        W12056   2.096   4.655   9.031
 4655W        W12057   7.848   9.179   9.318
 4656W        W12058  11.113   9.574   9.865
 4657W        W12059   4.188   6.613   8.248
 4658W        W12060   3.420   4.953   7.773
 4659W        W12061   8.671   5.498   9.899
 4660W        W12062   4.651   6.811   8.208
 4661W        W12063   3.765   7.372   9.908
 4662W        W12064  17.041   7.480   1.711
 4663W        W12065   3.853   3.497   0.436
 4664W        W12066  15.293   3.053   0.369
 4665W        W12067  19.492   8.140   9.308
 4666W        W12068   3.092   0.343   7.774
 4667W        W12069  17.346   3.196   0.812
 4668W        W12070   7.025   6.505   1.249
 4669W        W12071  16.176   6.732   1.617
 4670W        W12072   7.659   3.376   9.010
 4671W        W12073   6.492   7.327   2.230
 4672W        W12074  13.630   6.672   0.474
 4673W        W12075  12.947   7.404   8.935
 4674W        W12076   5.208   1.757   8.900
 4675W        W12077  14.689   8.892   0.203
 4676W        W12078   1.381   3.820   9.816
 4677W        W12079  13.899   6.263   9.851
 4678W        W12080  19.017   0.509   7.233
 4679W        W12081   0.326   5.597   1.979
 4680W        W12082   8.649   7.974   0.778
 4681W        W12083  16.747   9.547   1.746
 4682W        W12084  17.985   9.468   9.145
 4683W        W12085   0.089   2.184   1.764
 4684W        W12086   9.545   9.787   0.833
 4685W        W12087  18.510   2.343   2.361
 4686W        W12088   7.201   7.560   9.795
 4687W        W12089  12.435   0.739   9.035
 4688W        W12090   3.311   9.285   9.368
 4689W        W12091   4.939   6.803   1.642
 4690W        W12092  19.728   1.017   0.247
 4691W        W12093   4.239   3.910   1.796
 4692W        W12094  16.070   7.095   8.099
 4693W        W12095  17.535   9.333   7.838
 4694W        W12096  11.573   7.266   0.588
 4695W        W12097  18.863   0.298   8.805
 4696W        W12098  10.395   3.603   0.823
 4697W        W12099   9.383   4.927   9.000
 4698W        W12100  19.095   6.101   1.646
 4699W        W12101   0.566   0.717   0.608
 4700W        W12102  16.155   0.859   9.721
 4701W        W12103  14.692   5.939   0.641
 4702W        W12104   4.612   6.906   2.058
 4703W        W12105   1.109   2.727   1.743
 4704W        W12106  19.181   7.639   2.092
 4705W        W12107  15.901   4.094   1.149
 4706W        W12108  18.691   3.081   9.176
 4707W        W12109   3.568   0.390   1.446
 4708W        W12110   1.922   8.861   8.447
 4709W        W12111   4.895   1.409   0.132
 4710W        W12112  18.336   8.138   0.175
 4711W        W12113  17.929   6.336   8.773
 4712W        W12114   3.570   7.711   9.588
 4713W        W12115   2.149   2.266   7.618
 4714W        W12116   3.847   3.973   1.447
 4715W        W12117  19.355   1.815   9.638
 4716W        W12118   9.281   0.842   8.816
 4717W        W12119  17.118   6.224   8.299
 4718W        W12120  12.564   5.490   8.229
 4719W        W12121   8.740   6.782   1.788
 4720W        W12122   6.413   1.020   7.768
 4721W        W12123  13.290   0.888   0.019
 4722W        W12124   1.544   7.714   0.198
 4723W        W12125  13.968   3.743   8.730
 4724W        W12126   3.855   6.317   8.526
 4725W        W12127   3.554   7.749   1.034
 4726W        W12128  12.060   3.562   0.194
 4727W        W12129   3.595   0.448   9.083
 4728W        W12130   9.316   7.992   9.308
 4729W        W12131  14.169   1.049   9.123
 4730W        W12132   7.590   8.203   8.493
 4731W        W12133   4.861   0.078   0.013
 4732W        W12134  12.754   6.085   2.167
 4733W        W12135   4.151   4.860   1.671
 4734W        W12136   9.401   8.310   8.013
 4735W        W12137   9.134   9.350   9.567
 4736W        W12138  13.135   4.900   7.612
 4737W        W12139  16.739   1.148   1.369
 4738W        W12140   6.409   7.140   9.342
 4739W        W12141  12.708   5.634   1.016
 4740W        W12142  16.908   3.065   1.535
 4741W        W12143  18.989   4.180   8.110
 4742W        W12144  14.339   0.635   0.175
 4743W        W12145   2.773   8.271   9.954
 4744W        W12146  19.881   6.775   8.874
 4745W        W12147   1.296   1.347   8.279
 4746W        W12148  15.954   9.486   0.320
 4747W        W12149   7.509   1.487   0.847
 4748W        W12150   4.115   1.084   8.457
 4749W        W12151   5.548   9.863   1.116
 4750W        W12152  15.683   9.245   9.459
 4751W        W12153  12.735   0.436   0.522
 4752W        W12154   3.823   0.716   8.704
 4753W        W12155   6.653   4.058   1.777
 4754W        W12156   1.651   7.228   1.591
 4755W        W12157   2.363   5.623   1.996
 4756W        W12158  19.695   5.736   9.811
 4757W        W12159  16.519   7.303   8.004
 4758W        W12160   6.872   0.232   2.253
 4759W        W12161   2.394   2.478   0.277
 4760W        W12162  16.463   7.742   0.406
 4761W        W12163  12.769   0.479   1.072
 4762W        W12164  15.633   6.207   9.411
 4763W        W12165  14.135   4.889   7.899
 4764W        W12166  10.508   7.915   1.991
 4765W        W12167   5.455   6.566   8.559
 4766W        W12168  18.297   5.384   0.530
 4767W        W12169   7.212   1.037   9.172
 4768W        W12170   0.435   4.325   8.914
 4769W        W12171  16.285   9.948   9.212
 4770W        W12172   6.325   7.992   0.262
 4771W        W12173   9.113   9.872   8.399
 4772W        W12174  17.396   9.630   0.672
 4773W        W12175   9.013   0.348   0.130
 4774W        W12176  17.327   6.177   2.356
 4775W        W12177   3.600   4.655   9.882
 4776W        W12178   5.678   6.822   2.100
 4777W        W12179  18.778   3.551   9.359
 4778W        W12180  18.353   7.195   0.156
 4779W        W12181  16.018   7.348   9.327
 4780W        W12182   2.227   5.754   0.141
 4781W        W12183  12.377   1.855   2.093
 4782W        W12184   1.585   7.716   2.329
 4783W        W12185   8.135   5.845   0.993
 4784W        W12186  10.702   9.922   0.904
 4785W        W12187   8.781   1.755   7.770
 4786W        W12188   2.140   2.016   0.318
 4787W        W12189  13.397   2.423   7.837
 4788W        W12190  14.463   5.790   8.274
 4789W        W12191  13.959   0.987   1.746
 4790W        W12192   0.694   5.309   1.251
 4791W        W12193   2.916   0.890   8.656
 4792W        W12194  14.362   6.252   2.378
 4793W        W12195  18.974   0.794   9.537
 4794W        W12196  12.166   9.248   8.044
 4795W        W12197   4.017   2.551   1.361
 4796W        W12198   6.427   2.942   1.080
 4797W        W12199  14.363   8.451   0.310
 4798W        W12200   8.033   7.455   9.779
 4799W        W12201   4.344   9.991   8.613
 4800W        W12202  16.966   4.187   9.333
 4801W        W12203   7.466   5.886   2.077
 4802W        W12204   4.100   3.478   1.543
 4803W        W12205  12.047   4.796   2.002
 4804W        W12206  15.876   8.869   7.989
 4805W        W12207   9.126   2.485   7.577
 4806W        W12208  19.118   0.693   7.688
 4807W        W12209   1.870   0.361   9.570
 4808W        W12210   4.163   1.325   9.874
 4809W        W12211   5.046   7.215   9.432
 4810W        W12212   0.737   1.586   9.514
 4811W        W12213  17.359   5.324   2.285
 4812W        W12214  16.760   7.904   1.500
 4813W        W12215  18.058   8.419   8.893
 4814W        W12216  18.415   0.971   1.243
 4815W        W12217  13.295   0.380   1.263
 4816W        W12218   4.773   9.511   7.675
 4817W        W12219  12.870   0.035   0.821
 4818W        W12220  19.982   0.266   0.809
 4819W        W12221   0.992   9.222   9.361
 4820W        W12222  11.024   0.163   2.594
 4821W        W12223   3.225   1.296   9.870
 4822W        W12224   1.121   5.376   0.869
 4823W        W12225  15.972   9.965   8.791
 4824W        W12226   7.984   2.124   2.303
 4825W        W12227   1.185   6.309   8.466
 4826W        W12228   5.434   3.771   9.103
 4827W        W12229  17.059   8.297   1.363
 4828W        W12230  11.381   7.903   9.399
 4829W        W12231   6.970   6.833   0.846
 4830W        W12232  12.130   8.963   0.269
 4831W        W12233   2.888   8.545   1.111
 4832W        W12234  17.983   0.248   8.716
 4833W        W12235   4.318   3.015   1.550
 4834W        W12236  11.072   6.734   2.097
 4835W        W12237   0.164   6.654   8.216
 4836W        W12238   5.990   6.745   1.687
 4837W        W12239  10.706   9.546   1.873
 4838W        W12240   0.241   5.087   9.336
 4839W        W12241   3.171   5.383   7.719
 4840W        W12242   2.543   4.583   8.762
 4841W        W12243   2.413   0.167   8.922
 4842W        W12244   8.744   6.569   7.649
 4843W        W12245  18.850   8.298   8.012
 4844W        W12246   4.412   8.653   0.531
 4845W        W12247   9.425   6.367   0.738
 4846W        W12248  10.925   2.072   1.784
 4847W        W12249   2.141   1.204   0.097
 4848W        W12250  14.010   1.480   0.504
 4849W        W12251   5.655   6.985   8.859
 4850W        W12252  12.630   7.417   1.791
 4851W        W12253   2.459   7.186   9.206
 4852W        W12254  12.590   4.509   8.720
 4853W        W12255  18.424   3.381   8.542
 4854W        W12256  19.794   6.227   1.153
 4855W        W12257   9.263   4.754   9.484
 4856W        W12258   4.599   7.757   1.003
 4857W        W12259  19.435   9.814   1.116
 4858W        W12260   3.453   8.589   1.391
 4859W        W12261  14.610   0.759   8.013
 4860W        W12262  17.833   7.302   0.169
 4861W        W12263  15.604   0.865   8.892
 4862W        W12264   8.037   1.693   2.075
 4863W        W12265  19.534   7.297   9.893
 4864W        W12266   1.085   2.640   9.495
 4865W        W12267  18.465   5.691   1.990
 4866W        W12268   7.635   4.680   1.345
 4867W        W12269   7.402   3.703   0.415
 4868W        W12270   7.601   8.378   2.097
 4869W        W12271  11.711   2.305   7.873
 4870W        W12272   2.541   3.769   9.688
 4871W        W12273   0.673   0.784   1.107
 4872W        W12274  13.637   6.038   8.483
 4873W        W12275  11.025   3.894   1.620
 4874W        W12276  16.179   4.978   9.135
 4875W        W12277   2.172   7.904   1.614
 4876W        W12278   4.845   4.977   1.742
 4877W        W12279  10.893   6.434   7.699
 4878W        W12280  14.950   2.881   8.882
 4879W        W12281  18.000   4.942   1.090
 4880W        W12282   9.852   7.143   8.373
 4881W        W12283   0.817   5.739   2.190
 4882W        W12284   6.207   1.945   9.299
 4883W        W12285   0.444   7.493   7.984
 4884W        W12286   6.243   2.449   1.133
 4885W        W12287   1.367   1.735   1.394
 4886W        W12288  14.787   7.777   0.750
 4887W        W12289  10.513   5.147   9.777
 4888W        W12290   2.713   1.413   2.063
 4889W        W12291   3.683   6.247   7.653
 4890W        W12292   1.649   3.033   8.078
 4891W        W12293   3.723   0.905   9.283
 4892W        W12294   5.841   4.525   0.369
 4893W        W12295   9.047   3.440   1.070
 4894W        W12296  16.813   5.923   7.940
 4895W        W12297   1.698   0.275   0.064
 4896W        W12298  18.598   8.482   0.824
 4897W        W12299   5.169   1.055   9.233
 4898W        W12300   7.330   1.594   1.372
 4899W        W12301   8.963   1.190   1.386
 4900W        W12302   0.162   2.302   9.189
 4901W        W12303  13.366   4.047   9.876
 4902W        W12304  11.099   7.739   9.791
 4903W        W12305   5.690   1.722   8.756
 4904W        W12306  10.550   1.701   1.823
 4905W        W12307  15.236   8.113   7.943
 4906W        W12308  15.586   8.408   8.962
 4907W        W12309   8.142   6.254   1.411
 4908W        W12310   7.868   6.140   9.580
 4909W        W12311   0.244   3.198   9.655
 4910W        W12312  18.934   6.478   8.692
 4911W        W12313   0.048   4.805   1.640
 4912W        W12314   1.245   9.562   9.646
 4913W        W12315   6.236   6.191   1.657
 4914W        W12316   6.939   7.285   0.575
 4915W        W12317  12.354   3.889   0.741
 4916W        W12318  14.419   1.495   9.255
 4917W        W12319  19.316   0.500   1.573
 4918W        W12320  14.655   5.864   1.525
 4919W        W12321  12.347   1.756   1.597
 4920W        W12322  10.480   2.656   7.938
 4921W        W12323  17.767   8.806   1.672
 4922W        W12324   4.603   3.423   1.398
 4923W        W12325  10.319   8.270   1.659
 4924W        W12326  12.959   4.874   9.404
 4925W        W12327   3.377   1.591   8.414
 4926W        W12328   4.554   7.806   0.102
 4927W        W12329  19.781   8.063   0.466
 4928W        W12330   8.765   4.594   9.584
 4929W        W12331   4.898   1.996   0.813
 4930W        W12332  17.421   2.363   1.641
 4931W        W12333  13.520   5.526   9.013
 4932W        W12334   7.033   5.262   0.993
 4933W        W12335   9.168   6.286   9.394
 4934W        W12336  16.904   4.554   0.345
 4935W        W12337  14.302   4.102   9.503
 4936W        W12338  15.281   2.599   8.532
 4937W        W12339   5.121   1.947   9.398
 4938W        W12340  19.961   4.121   7.652
 4939W        W12341   2.296   8.243   9.671
 4940W        W12342   2.403   5.260   2.351
 4941W        W12343  18.934   8.798   8.202
 4942W        W12344  15.033   2.165   1.352
 4943W        W12345   3.683   2.233   1.586
 4944W        W12346  13.035   7.650   2.015
 4945W        W12347   9.744   1.484   9.252
 4946W        W12348   0.578   5.500   9.268
 4947W        W12349   9.454   6.082   8.746
 4948W        W12350  14.690   5.276   0.245
 4949W        W12351  16.903   0.369   9.721
 4950W        W12352  14.824   7.909   8.866
 4951W        W12353   7.971   4.023   9.757
 4952W        W12354  19.938   4.287   8.798
 4953W        W12355  10.015   0.134   0.650
 4954W        W12356   6.231   5.599   1.082
 4955W        W12357   0.812   6.093   8.111
 4956W        W12358   4.717   5.332   8.095
 4957W        W12359  13.289   1.051   7.611
 4958W        W12360   4.718   0.275   8.804
 4959W        W12361  17.492   0.251   7.910
 4960W        W12362   3.215   5.656   9.894
 4961W        W12363  18.136   2.527   7.578
 4962W        W12364   7.592   8.176   7.969
 4963W        W12365  14.923   5.846   8.040
 4964W        W12366  11.040   9.189   8.885
 4965W        W12367  17.060   0.353   8.192
 4966W        W12368  16.015   8.990   9.759
 4967W        W12369   3.800   6.083   8.983
 4968W        W12370   8.109   3.470   2.021
 4969W        W12371   3.206   6.409   1.719
 4970W        W12372  12.593   4.645   9.740
 4971W        W12373   6.791   8.766   9.211
 4972W        W12374   2.294   2.933   8.604
 4973W        W12375  14.429   2.227   2.072
 4974W        W12376  13.809   1.027   8.570
 4975W        W12377  17.523   1.144   8.161
 4976W        W12378  19.276   8.360   2.612
 4977W        W12379   3.172   1.153   8.279
 4978W        W12380   1.815   9.317   8.715
 4979W        W12381   1.148   6.410   7.465
 4980W        W12382   4.511   7.329   0.364
 4981W        W12383  13.327   5.846   9.400
 4982W        W12384  19.393   1.958   8.067
 4983W        W12385  13.278   8.090   1.605
 4984W        W12386  14.724   0.103   9.235
 4985W        W12387  15.786   6.850   8.441
 4986W        W12388  13.529   3.559   8.500
 4987W        W12389   1.928   2.639   8.337
 4988W        W12390   6.895   3.118   9.673
 4989W        W12391  15.656   4.908   0.783
 4990W        W12392  16.077   6.886   1.138
 4991W        W12393  19.430   0.994   9.469
 4992W        W12394  12.888   0.895   0.783
 4993W        W12395   4.699   0.458   1.774
 4994W        W12396  18.920   8.859   8.711
 4995W        W12397   9.979   1.133   8.190
 4996W        W12398  18.421   0.014   1.727
 4997W        W12399  10.214   9.916   1.645
 4998W        W12400  15.548   5.710   9.209
 4999W        W12401   1.119   5.337   2.336
 5000W        W12402   1.229   7.209   0.122
 5001W        W12403   7.679   2.647   9.767
 5002W        W12404  10.517   5.767   1.386
 5003W        W12405   7.625   7.604   1.876
 5004W        W12406  19.406   4.079   2.214
 5005W        W12407  15.935   5.711   0.164
 5006W        W12408  10.774   8.599   1.610
 5007W        W12409   9.970   6.222   8.439
 5008W        W12410   6.293   6.335   0.733
 5009W        W12411   6.206   7.133   0.532
 5010W        W12412  10.713   5.195   9.307
 5011W        W12413  14.370   5.425   0.642
 5012W        W12414   7.289   3.850   7.796
 5013W        W12415   2.892   6.881   7.888
 5014W        W12416   6.287   8.510   9.684
 5015W        W12417   8.845   0.242   1.664
 5016W        W12418   8.464   2.427   9.658
 5017W        W12419  11.467   7.867   8.547
 5018W        W12420  11.281   4.697   0.049
 5019W        W12421  19.741   2.142   0.829
 5020W        W12422   7.080   1.750   0.749
 5021W        W12423  17.887   8.608   7.568
 5022W        W12424   5.913   9.496   1.069
 5023W        W12425   6.965   8.881   2.021
 5024W        W12426   7.102   7.873   7.512
 5025W        W12427  11.314   6.921   0.251
 5026W        W12428   0.320   1.536   0.470
 5027W        W12429  14.520   3.555   0.218
 5028W        W12430   0.535   9.723   8.549
 5029W        W12431   0.016   3.965   1.733
 5030W        W12432   8.668   7.163   1.451
 5031W        W12433  19.364   8.239   9.800
 5032W        W12434  11.013   9.757   2.249
 5033W        W12435   1.242   2.868   2.305
 5034W        W12436  12.890   8.730   0.649
 5035W        W12437  15.251   7.473   0.981
 5036W        W12438   2.041   9.524   0.774
 5037W        W12439   7.545   2.245   1.985
 5038W        W12440  18.284   7.689   8.753
 5039W        W12441   3.296   3.237   9.704
 5040W        W12442  11.834   9.187   8.426
 5041W        W12443  12.418   8.130   9.749
 5042W        W12444   4.683   7.563   8.787
 5043W        W12445   4.308   3.848   1.252
 5044W        W12446  12.347   3.341   2.031
 5045W        W12447  10.227   9.944   1.100
 5046W        W12448   5.542   0.367   1.151
 5047W        W12449  19.611   6.681   1.213
 5048W        W12450   6.275   3.149   2.142
 5049W        W12451   9.130   6.814   1.457
 5050W        W12452  10.464   4.440   1.248
 5051W        W12453  10.486   1.644   0.788
 5052W        W12454  18.103   0.457   2.521
 5053W        W12455   6.914   0.197   8.251
 5054W        W12456   9.753   7.137   1.907
 5055W        W12457   3.857   8.033   2.017
 5056W        W12458   7.881   6.357   2.167
 5057W        W12459   0.319   4.681   0.152
 5058W        W12460   9.951   1.494   0.323
 5059W        W12461  15.314   8.027   1.852
 5060W        W12462  13.404   6.547   8.418
 5061W        W12463  13.343   9.223   9.896
 5062W        W12464   1.753   4.648   1.229
 5063W        W12465  18.112   9.702   2.098
 5064W        W12466   9.830   4.613   8.935
 5065W        W12467   7.401   5.927   9.805
 5066W        W12468  15.147   9.722   1.292
 5067W        W12469  16.628   2.943   7.965
 5068W        W12470   8.172   3.187   8.508
 5069W        W12471   3.042   7.697   1.168
 5070W        W12472  11.816   5.036   7.974
 5071W        W12473  17.810   3.614   1.575
 5072W        W12474  19.212   5.223   0.456
 5073W        W12475  18.311   9.498   1.665
 5074W        W12476  19.665   8.469   0.170
 5075W        W12477   5.337   6.777   9.497
 5076W        W12478   9.169   9.242   9.054
 5077W        W12479   2.338   7.418   7.980
 5078W        W12480   2.727   5.910   9.271
 5079W        W12481  12.825   8.425   9.836
 5080W        W12482  11.491   9.462   2.970
 5081W        W12483   5.383   0.792   1.891
 5082W        W12484  17.561   4.075   0.485
 5083W        W12485  13.514   3.005   9.713
 5084W        W12486  17.936   0.197   8.185
 5085W        W12487  10.626   0.777   0.552
 5086W        W12488  16.327   5.775   7.967
 5087W        W12489   3.243   6.605   2.192
 5088W        W12490  14.296   3.560   0.686
 5089W        W12491   1.265   8.869   0.416
 5090W        W12492   1.552   6.868   8.985
 5091W        W12493   5.534   8.147   1.866
 5092W        W12494   5.283   6.892   0.335
 5093W        W12495  19.195   0.658   8.689
 5094W        W12496  14.412   1.007   1.514
 5095W        W12497   4.528   8.764   9.765
 5096W        W12498  15.993   8.126   8.356
 5097W        W12499  16.223   7.910   7.902
 5098W        W12500  11.567   6.497   9.194
 5099W        W12501   4.585   3.049   9.363
 5100W        W12502   4.998   4.836   9.924
 5101W        W12503   1.931   5.107   2.491
 5102W        W12504   8.186   0.965   9.901
 5103W        W12505  16.244   4.994   1.605
 5104W        W12506  11.890   2.767   7.964
 5105W        W12507   3.964   6.033   0.710
 5106W        W12508   0.237   2.752   8.887
 5107W        W12509   0.478   4.534   1.622
 5108W        W12510   6.672   5.858   1.917
 5109W        W12511  17.641   9.232   9.897
 5110W        W12512  11.680   9.033   0.957
 5111W        W12513   4.125   7.272   1.701
 5112W        W12514  13.186   6.967   8.886
 5113W        W12515  18.451   6.240   0.033
 5114W        W12516  17.538   6.482   8.482
 5115W        W12517   2.075   8.955   1.899
 5116W        W12518   9.014   1.485   9.277
 5117W        W12519  11.698   5.204   8.899
 5118W        W12520   3.369   7.292   1.191
 5119W        W12521  14.385   1.637   0.177
 5120W        W12522  12.142   2.112   0.765
 5121W        W12523  16.247   1.329   9.493
 5122W        W12524  16.424   4.506   1.719
 5123W        W12525   0.630   1.544   2.143
 5124W        W12526  17.267   7.798   2.289
 5125W        W12527  19.034   0.600   2.222
 5126W        W12528  12.701   5.665   7.757
 5127W        W12529  13.157   0.491   9.707
 5128W        W12530   0.668   5.610   8.224
 5129W        W12531  19.704   9.866   8.326
 5130W        W12532   8.481   2.678   2.288
 5131W        W12533   6.524   5.499   2.249
 5132W        W12534  16.267   7.928   2.079
 5133W        W12535  13.421   3.156   0.202
 5134W        W12536  19.823   9.040   8.211
 5135W        W12537  12.807   3.589   9.833
 5136W        W12538  10.063   3.846   7.939
 5137W        W12539   2.436   0.921   1.042
 5138W        W12540  10.410   0.249   8.354
 5139W        W12541  16.325   0.782   8.316
 5140W        W12542   5.974   1.474   2.056
 5141W        W12543   8.099   4.194   9.287
 5142W        W12544  12.320   9.659   2.127
 5143W        W12545  15.014   9.672   9.060
 5144W        W12546  10.812   7.015   9.322
 5145W        W12547   3.814   1.379   2.029
 5146W        W12548  18.618   9.396   9.976
 5147W        W12549  15.588   2.285   2.253
 5148W        W12550  13.796   1.879   2.081
 5149W        W12551   3.441   0.040   1.098
 5150W        W12552   6.478   5.969   9.913
 5151W        W12553   2.733   3.641   1.777
 5152W        W12554   6.651   1.192   8.317
 5153W        W12555  16.257   5.520   1.746
 5154W        W12556   1.799   7.767   0.864
 5155W        W12557   4.953   0.134   0.495
 5156W        W12558  19.686   3.402   8.429
 5157W        W12559   5.012   2.400   7.666
 5158W        W12560   0.948   8.808   9.660
 5159W        W12561  11.306   0.045   7.824
 5160W        W12562  17.118   8.265   2.398
 5161W        W12563  15.307   0.715   8.369
 5162W        W12564   4.558   9.704   9.440
 5163W        W12565  16.173   2.924   9.880
 5164W        W12566  15.795   9.448   0.791
 5165W        W12567   1.556   6.430   7.782
 5166W        W12568  12.832   9.091   8.692
 5167W        W12569  15.355   1.594   8.250
 5168W        W12570  18.046   4.859   9.602
 5169W        W12571   5.275   7.981   0.496
 5170W        W12572  11.121   2.154   9.402
 5171W        W12573  16.905   6.409   0.682
 5172W        W12574   3.381   5.602   8.204
 5173W        W12575  14.803   1.599   7.583
 5174W        W12576   8.226   4.503   8.868
 5175W        W12577  14.718   4.014   0.320
 5176W        W12578   2.274   1.026   0.559
 5177W        W12579  12.349   6.415   9.655
 5178W        W12580   6.125   1.317   8.467
 5179W        W12581  15.579   3.608   9.612
 5180W        W12582   4.281   9.765   1.171
 5181W        W12583   3.077   6.045   8.332
 5182W        W12584  16.863   6.151   2.086
 5183W        W12585   8.142   8.935   1.476
 5184W        W12586  17.106   4.118   8.835
 5185W        W12587  14.893   9.622   0.602
 5186W        W12588   9.558   7.571   8.383
 5187W        W12589   3.790   3.146   1.787
 5188W        W12590  10.260   9.065   2.406
 5189W        W12591   4.283   0.711   8.095
 5190W        W12592   7.495   9.302   0.345
 5191W        W12593   3.655   6.895   1.038
 5192W        W12594   5.323   1.548   0.798
 5193W        W12595   2.418   6.181   2.676
 5194W        W12596  11.648   7.950   0.251
 5195W        W12597  10.720   4.352   9.135
 5196W        W12598  10.507   2.502   0.534
 5197W        W12599   8.236   6.139   0.589
 5198W        W12600   0.320   6.905   0.763
 5199W        W12601  19.325   8.478   8.163
 5200W        W12602   3.223   6.924   0.099
 5201W        W12603   8.972   3.025   1.796
 5202W        W12604  13.310   4.814   0.676
 5203W        W12605   6.928   9.468   1.158
 5204W        W12606   6.604   1.186   9.670
 5205W        W12607   9.860   0.639   9.448
 5206W        W12608  10.447   2.156   1.489
 5207W        W12609  14.837   3.212   1.039
 5208W        W12610   2.847   6.670   1.461
 5209W        W12611   7.231   2.752   9.583
 5210W        W12612  17.182   7.039   1.943
 5211W        W12613   9.640   9.305   9.507
 5212W        W12614   5.838   4.546   1.402
 5213W        W12615  14.435   4.089   9.003
 5214W        W12616  19.969   0.287   7.992
 5215W        W12617  11.366   9.439   0.343
 5216W        W12618  17.828   3.145   8.880
 5217W        W12619   8.678   4.026   2.029
 5218W        W12620  15.648   5.101   8.199
 5219W        W12621  17.049   8.125   0.021
 5220W        W12622  15.912   6.039   7.769
 5221W        W12623  16.181   6.521   8.263
 5222W        W12624   5.812   7.864   1.168
 5223W        W12625   8.828   9.568   2.138
 5224W        W12626   3.760   8.943   8.683
 5225W        W12627   2.780   4.342   7.889
 5226W        W12628  13.386   4.956   9.667
 5227W        W12629  10.627   8.833   8.751
 5228W        W12630   5.362   9.448   1.956
 5229W        W12631   3.026   2.627   1.065
 5230W        W12632  16.373   3.675   9.038
 5231W        W12633   7.553   8.281   0.080
 5232W        W12634  19.513   6.135   0.733
 5233W        W12635   8.478   8.402   0.549
 5234W        W12636  18.366   2.482   1.875
 5235W        W12637  11.450   3.389   9.949
 5236W        W12638   8.856   8.947   9.385
 5237W        W12639   2.611   1.921   2.083
 5238W        W12640   7.168   4.818   1.754
 5239W        W12641   3.508   5.909   8.598
 5240W        W12642   4.672   8.676   0.969
 5241W        W12643  19.677   8.138   8.041
 5242W        W12644  14.131   6.698   0.038
 5243W        W12645  14.595   8.362   8.546
 5244W        W12646  15.792   2.758   1.478
 5245W        W12647  14.711   9.239   9.822
 5246W        W12648   2.834   5.402   2.051
 5247W        W12649   2.096   9.151   9.895
 5248W        W12650  16.473   0.776   2.209
 5249W        W12651   2.122   0.545   0.912
 5250W        W12652  13.914   8.803   7.943
 5251W        W12653   6.087   3.255   9.849
 5252W        W12654   9.546   4.506   0.274
 5253W        W12655   6.824   9.801   9.488
 5254W        W12656  11.911   8.665   0.655
 5255W        W12657   1.491   0.110   7.641
 5256W        W12658  11.925   1.689   8.413
 5257W        W12659   1.249   6.557   0.675
 5258W        W12660   2.872   0.360   2.202
 5259W        W12661   7.787   9.870   9.146
 5260W        W12662  12.323   0.404   1.314
 5261W        W12663  10.623   8.799   8.207
 5262W        W12664  19.166   7.404   7.901
 5263W        W12665   4.293   6.088   1.091
 5264W        W12666  13.433   3.084   9.218
 5265W        W12667   0.990   4.177   1.610
 5266W        W12668   2.597   8.446   9.230
 5267W        W12669   6.310   7.875   1.272
 5268W        W12670   0.777   0.656   9.802
 5269W        W12671  11.482   6.777   2.372
 5270W        W12672  10.374   9.987   8.851
 5271W        W12673  14.781   6.981   8.062
 5272W        W12674  11.868   6.480   8.738
 5273W        W12675   7.180   0.759   1.029
 5274W        W12676   9.328   8.011   1.691
 5275W        W12677  18.310   0.918   7.538
 5276W        W12678  10.851   5.151   7.737
 5277W        W12679  17.513   2.161   0.134
 5278W        W12680   4.798   9.948   7.948
 5279W        W12681  11.203   9.067   9.481
 5280W        W12682   8.271   5.312   1.348
 5281W        W12683  12.618   6.405   9.235
 5282W        W12684   0.975   4.860   2.280
 5283W        W12685  14.196   2.463   9.448
 5284W        W12686  17.355   3.850   1.441
 5285W        W12687  16.793   2.842   8.857
 5286W        W12688   4.944   8.646   0.028
 5287W        W12689   8.541   3.166   2.056
 5288W        W12690   9.450   2.189   9.890
 5289W        W12691  12.725   8.297   9.331
 5290W        W12692   3.739   1.779   2.353
 5291W        W12693  14.927   3.914   2.043
 5292W        W12694  18.997   7.734   0.343
 5293W        W12695  10.606   8.907   0.326
 5294W        W12696   3.069   1.870   8.713
 5295W        W12697   6.706   7.635   0.919
 5296W        W12698   1.608   9.188   2.010
 5297W        W12699  18.619   2.975   1.767
 5298W        W12700  12.938   7.947   9.638
 5299W        W12701  18.226   1.488   1.909
 5300W        W12702   4.858   8.469   9.390
 5301W        W12703  14.625   5.175   2.416
 5302W        W12704  14.259   5.886   9.674
 5303W        W12705   4.051   5.215   8.147
 5304W        W12706  11.731   9.476   0.700
 5305W        W12707  15.552   6.596   9.069
 5306W        W12708  19.685   5.318   1.202
 5307W        W12709   2.251   0.290   1.805
 5308W        W12710  10.652   2.840   8.805
 5309W        W12711   6.589   3.396   9.961
 5310W        W12712  11.526   0.725   0.040
 5311W        W12713   9.579   0.982   1.638
 5312W        W12714   5.894   4.460   1.907
 5313W        W12715   7.841   9.527   2.127
 5314W        W12716   2.716   1.865   2.581
 5315W        W12717  10.526   1.593   8.208
 5316W        W12718  14.816   6.360   9.700
 5317W        W12719  18.468   1.143   9.078
 5318W        W12720  12.000   4.149   0.992
 5319W        W12721   1.970   9.935   7.590
 5320W        W12722   9.164   3.997   2.208
 5321W        W12723  15.268   3.176   9.773
 5322W        W12724   6.589   7.914   9.784
 5323W        W12725   1.614   3.934   7.577
 5324W        W12726  19.139   3.743   7.844
 5325W        W12727  14.365   9.385   8.867
 5326W        W12728  13.725   8.399   8.694
 5327W        W12729  11.258   4.628   1.655
 5328W        W12730   3.126   3.280   8.905
 5329W        W12731  16.537   6.119   8.313
 5330W        W12732   5.135   6.115   7.874
 5331W        W12733   1.549   2.104   9.945
 5332W        W12734   6.127   9.060   1.466
 5333W        W12735  17.697   9.395   8.740
 5334W        W12736   9.291   4.394   8.889
 5335W        W12737  16.941   3.345   9.747
 5336W        W12738   5.917   6.427   8.762
 5337W        W12739  12.980   7.423   9.796
 5338W        W12740  16.166   0.708   1.609
 5339W        W12741  16.406   0.381   9.978
 5340W        W12742   6.060   8.012   9.793
 5341W        W12743  12.192   7.321   8.516
 5342W        W12744   3.512   0.387   8.067
 5343W        W12745  13.288   5.679   8.577
 5344W        W12746   4.018   6.090   9.826
 5345W        W12747  13.420   7.412   0.102
 5346W        W12748   9.812   8.483   0.212
 5347W        W12749  18.227   6.369   1.327
 5348W        W12750   6.827   7.907   0.460
 5349W        W12751   1.751   8.712   1.107
 5350W        W12752   9.401   1.359   9.604
 5351W        W12753   5.837   4.860   9.983
 5352W        W12754   4.552   8.196   0.745
 5353W        W12755  17.365   3.879   0.048
 5354W        W12756   0.373   4.912   0.755
 5355W        W12757  14.516   0.853   1.043
 5356W        W12758   7.972   0.181   0.864
 5357W        W12759   3.192   3.425   8.416
 5358W        W12760   2.373   3.126   0.750
 5359W        W12761   0.675   8.795   9.216
 5360W        W12762  15.473   5.377   9.573
 5361W        W12763   5.649   8.642   1.984
 5362W        W12764  11.056   5.619   7.734
 5363W        W12765  11.588   6.445   1.027
 5364W        W12766  16.535   7.233   0.392
 5365W        W12767  13.250   2.189   0.081
 5366W        W12768   2.103   9.989   9.302
 5367W        W12769  12.026   8.300   0.322
 5368W        W12770   8.093   1.361   2.446
 5369W        W12771  17.839   7.347   8.229
 5370W        W12772   5.752   6.956   1.265
 5371W        W12773  13.773   0.626   0.907
 5372W        W12774   4.078   0.493   1.610
 5373W        W12775   6.297   5.965   9.411
 5374W        W12776   3.854   2.768   2.748
 5375W        W12777   3.457   9.906   0.578
 5376W        W12778  17.323   4.375   0.139
 5377W        W12779  17.164   0.025   0.408
 5378W        W12780  19.851   1.979   8.362
 5379W        W12781   9.141   2.461   0.716
 5380W        W12782   5.271   2.826   1.198
 5381W        W12783  11.819   7.594   7.636
 5382W        W12784  15.271   9.754   9.895
 5383W        W12785  16.733   1.214   9.424
 5384W        W12786   3.317   6.244   8.934
 5385W        W12787  19.784   3.120   0.701
 5386W        W12788  17.424   6.585   2.060
 5387W        W12789  10.071   3.488   8.301
 5388W        W12790  10.776   4.768   1.522
 5389W        W12791  18.960   4.173   8.613
 5390W        W12792  19.035   3.125   2.073
 5391W        W12793  18.454   3.186   0.725
 5392W        W12794  11.730   1.203   0.976
 5393W        W12795   4.511   6.419   0.249
 5394W        W12796   7.802   3.523   0.674
 5395W        W12797   5.156   7.403   8.897
 5396W        W12798   8.449   2.972   9.722
 5397W        W12799  15.550   8.388   0.284
 5398W        W12800   2.191   7.156   8.569
 5399W        W12801   4.183   0.492   9.941
 5400W        W12802  13.400   7.729   9.719
 5401W        W12803  17.562   2.303   0.618
 5402W        W12804   8.151   4.871   2.083
 5403W        W12805   3.430   6.907   0.578
 5404W        W12806  14.355   4.167   1.284
 5405W        W12807   1.176   9.894   9.276
 5406W        W12808  19.724   4.427   1.006
 5407W        W12809   7.133   7.990   9.528
 5408W        W12810  10.003   2.891   1.655
 5409W        W12811   0.173   7.804   1.274
 5410W        W12812  19.057   1.475   2.295
 5411W        W12813   3.734   9.226   9.644
 5412W        W12814  12.770   1.794   1.303
 5413W        W12815   7.632   1.835   9.123
 5414W        W12816   3.243   5.896   9.392
 5415W        W12817   6.882   3.483   8.325
 5416W        W12818  12.369   6.875   9.312
 5417W        W12819  18.886   1.777   9.862
 5418W        W12820   4.662   6.057   8.919
 5419W        W12821   3.770   4.911   0.272
 5420W        W12822   8.315   0.258   1.777
 5421W        W12823   6.486   9.480   9.233
 5422W        W12824   7.260   8.895   9.006
 5423W        W12825  18.195   9.758   8.243
 5424W        W12826   7.189   4.561   9.851
 5425W        W12827  16.204   4.385   2.205
 5426W        W12828  13.553   2.060   2.488
 5427W        W12829   5.056   6.028   2.172
 5428W        W12830  12.486   5.105   7.572
 5429W        W12831  18.380   8.953   0.877
 5430W        W12832  10.380   9.402   1.501
 5431W        W12833   4.599   5.454   1.581
 5432W        W12834  16.186   1.441   7.589
 5433W        W12835  12.183   5.585   0.992
 5434W        W12836   3.726   7.612   9.089
 5435W        W12837  11.546   3.335   1.905
 5436W        W12838   6.221   9.843   0.310
 5437W        W12839  18.874   4.020   9.094
 5438W        W12840   0.097   3.565   9.333
 5439W        W12841  12.477   9.436   8.966
 5440W        W12842   2.771   4.660   1.565
 5441W        W12843  19.075   1.373   1.571
 5442W        W12844   2.685   6.478   0.778
 5443W        W12845   0.635   6.169   8.626
 5444W        W12846  10.608   1.686   2.332
 5445W        W12847  15.601   2.919   8.248
 5446W        W12848  14.218   3.305   8.685
 5447W        W12849  15.481   8.093   8.494
 5448W        W12850  12.028   9.903   0.805
 5449W        W12851   6.258   1.903   0.326
 5450W        W12852   7.743   1.333   9.041
 5451W        W12853   3.525   1.705   1.206
 5452W        W12854  11.320   2.010   8.888
 5453W        W12855   1.708   3.912   8.068
 5454W        W12856  15.865   8.920   0.674
 5455W        W12857   8.698   1.633   8.878
 5456W        W12858  17.935   3.931   2.255
 5457W        W12859   1.255   5.083   9.945
 5458W        W12860  12.417   7.170   7.761
 5459W        W12861   1.534   9.775   0.155
 5460W        W12862   2.341   2.564   8.026
 5461W        W12863   1.511   0.647   1.085
 5462W        W12864  19.659   1.634   0.927
 5463W        W12865   7.577   3.432   7.587
 5464W        W12866   0.665   1.373   1.263
 5465W        W12867   2.169   3.031   8.112
 5466W        W12868   5.786   7.715   9.421
 5467W        W12869   6.898   5.134   8.200
 5468W        W12870  10.195   3.731   0.091
 5469W        W12871   1.991   8.902   8.952
 5470W        W12872  10.787   9.957   9.597
 5471W        W12873   7.806   3.974   0.927
 5472W        W12874  18.927   5.101   8.571
 5473W        W12875  17.399   1.961   1.998
 5474W        W12876   5.278   2.343   0.298
 5475W        W12877   7.210   2.724   2.620
 5476W        W12878   6.698   8.065   7.846
 5477W        W12879   0.097   4.648   2.405
 5478W        W12880  17.622   8.148   8.884
 5479W        W12881   4.910   9.092   1.152
 5480W        W12882   0.385   7.444   2.135
 5481W        W12883  14.525   9.905   7.538
 5482W        W12884  14.315   5.445   8.648
 5483W        W12885   9.366   0.900   7.604
 5484W        W12886   7.369   3.195   0.597
 5485W        W12887  17.512   6.914   0.240
 5486W        W12888  10.360   2.653   9.733
 5487W        W12889  16.515   6.917   8.333
 5488W        W12890   2.310   7.264   7.334
 5489W        W12891   5.393   0.770   9.631
 5490W        W12892   1.151   7.023   1.611
 5491W        W12893   8.924   2.905   2.269
 5492W        W12894  10.819   3.944   9.463
 5493W        W12895   5.617   3.561   9.961
 5494W        W12896  10.623   2.112   0.948
 5495W        W12897   6.025   3.180   0.812
 5496W        W12898   0.246   8.759   9.506
 5497W        W12899  13.680   2.423   2.847
 5498W        W12900   1.131   3.354   0.668
 5499W        W12901   7.560   8.102   7.447
 5500W        W12902   4.635   4.896   9.559
 5501W        W12903   8.822   1.024   2.213
 5502W        W12904  16.658   0.126   1.785
 5503W        W12905  18.116   1.959   8.308
 5504W        W12906  19.920   7.698   2.365
 5505W        W12907  12.124   6.071   1.592
 5506W        W12908   1.819   0.513   1.508
 5507W        W12909   4.786   3.019   1.760
 5508W        W12910   4.313   2.851   1.062
 5509W        W12911   6.453   2.906   0.035
 5510W        W12912  13.874   7.333   2.467
 5511W        W12913  12.555   2.196   1.050
 5512W        W12914   3.387   7.913   1.492
 5513W        W12915   2.312   4.201   9.083
 5514W        W12916  19.750   4.921   9.349
 5515W        W12917   9.571   5.167   8.556
 5516W        W12918   0.510   0.338   7.766
 5517W        W12919   8.623   6.653   0.653
 5518W        W12920  14.865   0.488   0.222
 5519W        W12921   5.546   1.381   2.316
 5520W        W12922   3.668   0.456   9.874
 5521W        W12923  13.181   9.760   8.340
 5522W        W12924   0.976   9.218   2.268
 5523W        W12925   6.308   7.663   8.480
 5524W        W12926   3.876   3.040   2.297
 5525W        W12927   8.512   7.235   0.030
 5526W        W12928   4.305   3.307   8.826
 5527W        W12929  14.608   9.957   8.334
 5528W        W12930  18.919   6.564   1.791
 5529W        W12931  13.885   2.089   9.293
 5530W        W12932   6.595   1.165   1.109
 5531W        W12933   2.670   8.679   9.675
 5532W        W12934   6.843   9.692   8.042
 5533W        W12935  18.690   6.721   0.005
 5534W        W12936   2.983   9.053   0.310
 5535W        W12937   2.759   3.548   8.146
 5536W        W12938  12.183   2.122   8.424
 5537W        W12939  10.961   1.625   1.032
 5538W        W12940  17.604   2.920   7.563
 5539W        W12941   4.073   5.317   0.218
 5540W        W12942   7.005   6.567   8.801
 5541W        W12943   0.719   2.870   2.055
 5542W        W12944   2.988   5.295   0.327
 5543W        W12945   1.080   0.696   0.789
 5544W        W12946  19.072   4.197   7.607
 5545W        W12947  17.795   2.620   7.939
 5546W        W12948   1.715   7.285   2.604
 5547W        W12949   0.855   0.240   0.615
 5548W        W12950   4.551   6.336   9.360
 5549W        W12951   2.406   4.462   8.248
 5550W        W12952  15.074   8.376   8.796
 5551W        W12953   2.927   6.447   0.184
 5552W        W12954  11.807   8.843   1.841
 5553W        W12955  16.972   2.929   8.355
 5554W        W12956   8.751   6.507   9.209
 5555W        W12957  16.959   2.119   1.767
 5556W        W12958   3.352   0.882   8.931
 5557W        W12959   0.504   1.589   7.962
 5558W        W12960  14.640   1.905   9.830
 5559W        W12961   0.587   8.079   0.132
 5560W        W12962  12.391   6.046   1.156
 5561W        W12963  18.807   4.493   9.301
 5562W        W12964   9.550   0.957   8.405
 5563W        W12965  18.746   1.834   0.867
 5564W        W12966  12.438   9.546   0.818
 5565W        W12967   0.289   0.550   9.612
 5566W        W12968   6.336   6.384   2.450
 5567W        W12969  13.447   3.338   1.952
 5568W        W12970   6.737   4.333   0.040
 5569W        W12971  18.499   1.445   0.519
 5570W        W12972  16.005   6.994   7.552
 5571W        W12973   7.795   1.793   9.603
 5572W        W12974  16.296   8.566   8.485
 5573W        W12975   6.735   4.009   2.287
 5574W        W12976  12.728   2.164   0.134
 5575W        W12977  16.307   8.130   8.777
 5576W        W12978   4.378   4.510   9.355
 5577W        W12979  10.541   7.318   0.558
 5578W        W12980   5.191   6.347   1.681
 5579W        W12981   8.500   0.478   9.333
 5580W        W12982   6.168   4.192   9.866
 5581W        W12983  18.636   3.790   7.907
 5582W        W12984  11.491   9.557   7.820
 5583W        W12985   8.532   1.040   1.143
 5584W        W12986  13.865   2.599   1.561
 5585W        W12987  13.046   2.270   1.210
 5586W        W12988   9.092   8.739   8.958
 5587W        W12989   2.220   5.710   0.654
 5588W        W12990   8.723   5.396   7.628
 5589W        W12991   4.473   0.866   2.047
 5590W        W12992  10.234   2.029   0.553
 5591W        W12993   8.618   4.874   2.263
 5592W        W12994   9.346   5.483   0.411
 5593W        W12995  18.695   0.699   8.526
 5594W        W12996  14.178   6.047   1.542
 5595W        W12997  17.820   6.843   0.729
 5596W        W12998  15.810   1.575   9.381
 5597W        W12999  12.993   1.773   0.352
 5598W        W13000   7.936   4.355   0.160
 5599W        W13001  16.113   0.660   8.840
 5600W        W13002   3.201   5.153   9.824
 5601W        W13003  10.613   6.959   2.075
 5602W        W13004  15.694   1.052   9.503
 5603W        W13005  17.835   7.609   7.762
 5604W        W13006  12.382   2.899   7.797
 5605W        W13007  13.619   1.215   0.280
 5606W        W13008   3.422   3.776   0.582
 5607W        W13009   4.268   5.205   1.273
 5608W        W13010   5.873   2.616   8.357
 5609W        W13011   8.820   2.249   9.342
 5610W        W13012   5.782   6.030   9.172
 5611W        W13013   1.642   0.090   9.138
 5612W        W13014  16.927   0.737   9.316
 5613W        W13015  13.481   1.119   1.930
 5614W        W13016  14.383   5.058   8.997
 5615W        W13017  17.415   1.425   1.961
 5616W        W13018  12.043   2.099   1.249
 5617W        W13019   4.428   2.653   0.153
 5618W        W13020   2.628   5.060   0.723
 5619W        W13021   4.527   4.716   2.160
 5620W        W13022   1.963   8.386   9.046
 5621W        W13023   8.003   2.775   8.231
 5622W        W13024   2.531   3.730   9.109
 5623W        W13025  19.133   2.817   1.276
 5624W        W13026   3.710   4.615   1.548
 5625W        W13027  16.486   5.631   8.423
 5626W        W13028   5.903   5.814   1.680
 5627W        W13029   6.476   5.387   8.069
 5628W        W13030  15.924   8.207   7.640
 5629W        W13031  12.206   8.280   9.313
 5630W        W13032  16.999   1.222   7.846
 5631W        W13033   9.877   8.329   8.913
 5632W        W13034  19.711   4.733   8.395
 5633W        W13035  19.863   4.461   0.203
 5634W        W13036  14.772   5.860   9.846
 5635W        W13037   1.148   3.112   8.954
 5636W        W13038   1.809   8.437   0.115
 5637W        W13039  19.494   4.471   0.561
 5638W        W13040  18.775   3.019   8.682
 5639W        W13041  15.160   0.609   8.879
 5640W        W13042  16.520   0.375   8.964
 5641W        W13043  11.698   1.174   1.477
 5642W        W13044  11.468   2.472   9.770
 5643W        W13045   2.455   6.288   9.467
 5644W        W13046   6.101   0.441   9.501
 5645W        W13047   3.796   4.652   0.707
 5646W        W13048  15.620   1.174   0.428
 5647W        W13049  16.796   2.510   9.969
 5648W        W13050  10.827   4.390   7.701
 5649W        W13051  10.349   1.268   1.590
 5650W        W13052  10.369   5.000   1.719
 5651W        W13053  11.409   2.470   0.643
 5652W        W13054   8.388   6.851   8.210
 5653W        W13055  17.844   4.643   7.818
 5654W        W13056  16.498   8.569   8.969
 5655W        W13057  11.053   6.552   9.256
 5656W        W13058   0.468   3.239   8.333
 5657W        W13059  17.576   0.613   1.607
 5658W        W13060   6.309   8.562   1.529
 5659W        W13061  15.265   0.181   8.591
 5660W        W13062  13.614   3.804   1.779
 5661W        W13063   3.244   4.409   1.348
 5662W        W13064  11.851   3.750   7.882
 5663W        W13065  18.140   4.468   1.281
 5664W        W13066   4.833   0.132   9.324
 5665W        W13067  18.890   7.184   2.106
 5666W        W13068  15.184   3.034   1.389
 5667W        W13069  12.882   6.070   0.259
 5668W        W13070  14.841   1.514   9.549
 5669W        W13071  11.590   0.569   9.070
 5670W        W13072  17.656   1.237   9.182
 5671W        W13073   7.912   9.012   2.033
 5672W        W13074   5.322   7.441   9.802
 5673W        W13075   9.315   7.083   8.296
 5674W        W13076  19.380   1.045   8.958
 5675W        W13077  14.122   4.024   7.993
 5676W        W13078   1.230   3.786   7.938
 5677W        W13079  10.154   5.544   7.927
 5678W        W13080   6.070   1.320   9.663
 5679W        W13081   3.177   0.609   1.707
 5680W        W13082  17.958   9.844   1.514
 5681W        W13083   1.359   0.493   7.955
 5682W        W13084   0.181   2.291   1.044
 5683W        W13085   1.125   4.243   9.787
 5684W        W13086  12.696   3.360   0.554
 5685W        W13087  15.870   4.444   9.862
 5686W        W13088  13.620   1.187   8.134
 5687W        W13089   7.956   7.008   9.533
 5688W        W13090   3.966   7.987   9.432
 5689W        W13091   1.652   6.820   1.918
 5690W        W13092   2.743   8.876   0.742
 5691W        W13093   8.624   0.922   9.617
 5692W        W13094   3.555   3.854   1.060
 5693W        W13095   1.733   6.787   9.452
 5694W        W13096   6.276   7.614   9.490
 5695W        W13097   3.159   2.900   8.383
 5696W        W13098  12.122   8.525   1.533
 5697W        W13099  13.846   9.195   1.349
 5698W        W13100  14.660   4.817   1.765
 5699W        W13101   6.383   2.194   8.011
 5700W        W13102  12.839   3.579   7.595
 5701W        W13103  17.731   1.669   8.892
 5702W        W13104   0.549   4.771   8.080
 5703W        W13105  14.628   4.924   8.098
 5704W        W13106   6.738   9.383   0.674
 5705W        W13107  15.088   1.113   0.392
 5706W        W13108  13.280   1.060   8.571
 5707W        W13109   5.260   5.246   2.582
 5708W        W13110  16.600   4.588   9.300
 5709W        W13111   5.007   7.337   0.268
 5710W        W13112   5.753   2.149   1.458
 5711W        W13113  16.801   6.906   0.716
 5712W        W13114   8.062   0.514   9.038
 5713W        W13115  13.977   5.788   8.835
 5714W        W13116   8.399   0.401   0.612
 5715W        W13117  19.666   5.138   1.684
 5716W        W13118  13.471   0.139   8.883
 5717W        W13119  15.741   5.799   9.691
 5718W        W13120   0.611   6.919   1.241
 5719W        W13121  11.893   1.766   1.951
 5720W        W13122  14.488   6.403   1.362
 5721W        W13123   8.533   9.542   8.763
 5722W        W13124  15.156   3.519   2.404
 5723W        W13125   0.220   1.873   2.168
 5724W        W13126  13.988   0.045   2.522
 5725W        W13127   7.709   3.339   0.202
 5726W        W13128   5.829   3.482   8.350
 5727W        W13129  18.822   8.772   0.462
 5728W        W13130  14.449   8.181   0.774
 5729W        W13131  14.832   7.787   7.973
 5730W        W13132   1.851   5.524   8.876
 5731W        W13133   7.294   5.415   0.027
 5732W        W13134   8.314   0.285   8.358
 5733W        W13135   6.054   4.057   7.646
 5734W        W13136   9.314   4.949   0.463
 5735W        W13137   8.638   9.681   0.510
 5736W        W13138   5.470   0.193   0.667
 5737W        W13139  15.647   8.032   9.903
 5738W        W13140   4.033   7.037   2.158
 5739W        W13141   0.442   9.690   1.874
 5740W        W13142   8.614   3.181   1.003
 5741W        W13143  18.711   7.792   9.031
 5742W        W13144  15.809   3.451   0.595
 5743W        W13145   9.853   5.134   8.990
 5744W        W13146  15.909   0.842   0.176
 5745W        W13147   5.799   7.012   7.947
 5746W        W13148  13.454   1.693   0.159
 5747W        W13149  12.506   8.706   9.525
 5748W        W13150  15.800   3.203   1.235
 5749W        W13151   7.541   7.250   8.003
 5750W        W13152   2.775   1.175   7.982
 5751W        W13153  16.161   7.209   8.595
 5752W        W13154  17.567   7.101   1.122
 5753W        W13155  10.212   9.457   8.829
 5754W        W13156  14.057   2.640   8.454
 5755W        W13157   8.244   1.358   8.834
 5756W        W13158  16.739   8.464   0.918
 5757W        W13159   0.582   1.497   0.015
 5758W        W13160  14.980   6.279   1.574
 5759W        W13161   2.285   6.105   7.791
 5760W        W13162  15.581   1.549   0.775
 5761W        W13163   6.560   1.600   0.818
 5762W        W13164  11.895   6.904   8.415
 5763W        W13165  18.434   5.918   0.436
 5764W        W13166   7.285   0.350   1.974
 5765W        W13167  14.882   2.662   1.226
 5766W        W13168  11.872   0.367   1.568
 5767W        W13169  13.514   4.505   8.874
 5768W        W13170   5.114   4.228   1.289
 5769W        W13171   6.854   5.631   7.171
 5770W        W13172   9.310   2.010   0.553
 5771W        W13173   2.556   6.859   8.810
 5772W        W13174  18.517   6.850   9.319
 5773W        W13175  14.115   8.347   8.344
 5774W        W13176  15.873   4.731   0.342
 5775W        W13177   2.798   1.091   9.126
 5776W        W13178   2.531   2.924   9.396
 5777W        W13179   0.378   8.309   2.109
 5778W        W13180   9.618   8.761   8.949
 5779W        W13181  16.952   0.246   9.204
 5780W        W13182   7.234   8.932   9.509
 5781W        W13183   3.989   2.026   7.712
 5782W        W13184  16.093   1.126   2.240
 5783W        W13185   8.876   9.294   0.243
 5784W        W13186  12.860   0.880   0.277
 5785W        W13187  11.676   1.225   8.442
 5786W        W13188   2.022   9.388   2.189
 5787W        W13189   7.237   2.358   0.200
 5788W        W13190  17.591   8.553   0.656
 5789W        W13191  12.044   3.343   9.713
 5790W        W13192   6.377   6.087   1.181
 5791W        W13193  15.040   9.714   8.506
 5792W        W13194   7.543   7.289   8.520
 5793W        W13195   2.795   1.790   0.701
 5794W        W13196  15.295   4.058   9.442
 5795W        W13197  11.307   6.982   8.404
 5796W        W13198   4.812   1.477   0.673
 5797W        W13199  17.401   3.861   9.178
 5798W        W13200   5.720   4.077   0.124
 5799W        W13201  18.939   9.163   1.857
 5800W        W13202  16.003   6.033   8.290
 5801W        W13203   4.331   1.750   0.623
 5802W        W13204  11.014   1.311   7.524
 5803W        W13205   8.770   2.773   9.369
 5804W        W13206   8.128   0.489   9.699
 5805W        W13207   3.725   3.686   1.829
 5806W        W13208   0.643   5.429   9.857
 5807W        W13209   9.049   2.486   9.723
 5808W        W13210   4.197   9.602   0.182
 5809W        W13211   5.064   2.951   9.489
 5810W        W13212   9.115   1.759   1.377
 5811W        W13213   7.803   0.392   1.859
 5812W        W13214   0.301   7.134   8.953
 5813W        W13215  15.462   0.173   9.659
 5814W        W13216  12.922   8.992   9.684
 5815W        W13217  13.877   2.902   0.189
 5816W        W13218   9.289   7.296   2.158
 5817W        W13219   7.413   5.344   1.978
 5818W        W13220  13.001   1.672   0.859
 5819W        W13221   7.704   0.582   0.046
 5820W        W13222  19.265   4.704   9.193
 5821W        W13223   8.356   7.297   2.286
 5822W        W13224  15.374   8.376   1.045
 5823W        W13225  18.125   4.581   0.014
 5824W        W13226  10.502   3.843   2.305
 5825W        W13227  19.164   5.585   8.059
 5826W        W13228   1.832   6.051   7.995
 5827W        W13229   7.646   1.478   8.199
 5828W        W13230  16.477   6.550   1.998
 5829W        W13231   3.124   1.738   2.062
 5830W        W13232  17.985   5.060   8.095
 5831W        W13233   0.424   9.264   2.188
 5832W        W13234  17.506   0.294   8.455
 5833W        W13235   7.948   7.360   7.684
 5834W        W13236  18.696   3.494   1.880
 5835W        W13237   1.124   5.129   1.854
 5836W        W13238   5.860   2.208   8.017
 5837W        W13239  17.195   8.570   8.394
 5838W        W13240  16.974   7.371   8.203
 5839W        W13241  14.683   9.144   1.509
 5840W        W13242  17.309   1.575   8.016
 5841W        W13243   6.705   2.035   0.547
 5842W        W13244   5.362   3.272   9.242
 5843W        W13245  17.569   8.333   1.652
 5844W        W13246  15.572   4.018   0.697
 5845W        W13247   6.940   2.189   8.838
 5846W        W13248   8.752   6.476   9.721
 5847W        W13249  19.593   7.398   0.795
 5848W        W13250  12.138   9.622   8.416
 5849W        W13251   5.134   1.675   2.281
 5850W        W13252   7.890   4.705   8.528
 5851W        W13253   6.948   3.060   8.839
 5852W        W13254  19.198   3.312   8.566
 5853W        W13255   6.057   2.748   9.716
 5854W        W13256   4.079   1.575   8.009
 5855W        W13257   4.488   8.015   8.709
 5856W        W13258   8.652   8.976   1.322
 5857W        W13259  10.474   0.123   0.388
 5858W        W13260   2.315   7.076   0.268
 5859W        W13261  19.828   7.996   8.952
 5860W        W13262   0.968   9.109   8.884
 5861W        W13263  16.535   8.733   2.001
 5862W        W13264   4.252   0.681   7.527
 5863W        W13265   4.461   9.814   2.026
 5864W        W13266   8.408   1.560   8.104
 5865W        W13267  11.600   2.029   1.615
 5866W        W13268  11.048   1.492   9.617
 5867W        W13269  15.729   6.579   1.353
 5868W        W13270  10.486   1.084   8.344
 5869W        W13271  17.711   9.877   9.004
 5870W        W13272   4.036   3.786   0.824
 5871W        W13273   5.071   7.830   0.057
 5872W        W13274   5.331   2.167   8.029
 5873W        W13275  10.923   0.336   1.089
 5874W        W13276   6.882   1.733   8.592
 5875W        W13277  14.550   4.504   0.308
 5876W        W13278   7.156   4.798   1.216
 5877W        W13279   0.369   7.497   1.635
 5878W        W13280  12.371   5.412   2.711
 5879W        W13281  19.760   1.107   8.160
 5880W        W13282  13.143   0.260   8.042
 5881W        W13283  13.769   4.156   0.169
 5882W        W13284   9.989   5.554   1.007
 5883W        W13285   8.214   3.532   8.086
 5884W        W13286  19.166   3.637   2.070
 5885W        W13287  10.529   0.646   8.639
 5886W        W13288  12.362   1.124   2.568
 5887W        W13289   2.790   6.621   1.984
 5888W        W13290   9.877   7.432   7.939
 5889W        W13291   0.156   9.756   0.348
 5890W        W13292  19.122   0.570   0.719
 5891W        W13293  13.921   2.750   7.526
 5892W        W13294   8.323   6.354   9.471
 5893W        W13295   8.280   4.528   9.822
 5894W        W13296   1.979   7.953   9.998
 5895W        W13297   5.701   0.930   8.090
 5896W        W13298  11.076   3.959   7.773
 5897W        W13299   3.618   4.563   8.014
 5898W        W13300   9.263   9.363   0.984
 5899W        W13301   2.711   8.012   9.503
 5900W        W13302   1.720   4.860   0.733
 5901W        W13303  18.849   0.160   7.777
 5902W        W13304  18.718   7.365   8.737
 5903W        W13305  12.897   4.045   9.644
 5904W        W13306   3.296   4.297   0.822
 5905W        W13307   3.561   2.622   2.341
 5906W        W13308  13.122   4.471   1.290
 5907W        W13309  17.454   9.147   1.859
 5908W        W13310   7.491   1.014   0.658
 5909W        W13311   3.886   2.288   8.946
 5910W        W13312   1.621   5.976   2.526
 5911W        W13313  11.707   9.417   2.423
 5912W        W13314  12.410   9.933   1.647
 5913W        W13315   8.550   5.999   8.679
 5914W        W13316  17.877   1.185   2.120
 5915W        W13317   1.297   3.460   9.332
 5916W        W13318  19.754   4.789   2.068
 5917W        W13319  13.251   6.999   0.831
 5918W        W13320   0.762   7.066   8.685
 5919W        W13321  16.817   6.141   2.613
 5920W        W13322  15.684   7.393   7.939
 5921W        W13323  14.173   1.797   9.614
 5922W        W13324  18.473   2.087   8.886
 5923W        W13325   5.850   9.548   1.931
 5924W        W13326  16.537   8.179   0.120
 5925W        W13327   9.300   9.808   1.287
 5926W        W13328  11.419   8.258   8.895
 5927W        W13329   2.541   3.962   1.089
 5928W        W13330  17.629   8.734   9.740
 5929W        W13331   4.840   0.839   9.563
 5930W        W13332   2.598   9.019   1.786
 5931W        W13333  11.588   5.160   0.758
 5932W        W13334  16.299   3.191   9.439
 5933W        W13335   8.894   1.993   0.879
 5934W        W13336  18.633   8.750   1.825
 5935W        W13337   3.482   8.067   9.221
 5936W        W13338  13.849   8.888   8.943
 5937W        W13339   2.453   5.844   8.178
 5938W        W13340  14.873   5.392   0.730
 5939W        W13341   9.020   7.492   0.733
 5940W        W13342   3.284   0.848   7.819
 5941W        W13343   0.728   3.857   2.326
 5942W        W13344  19.621   7.223   8.252
 5943W        W13345   3.863   7.738   1.554
 5944W        W13346  16.731   4.095   1.546
 5945W        W13347  12.323   6.337   7.785
 5946W        W13348  13.025   1.340   0.079
 5947W        W13349   4.156   5.674   2.114
 5948W        W13350   0.024   5.441   7.714
 5949W        W13351  15.074   9.388   0.167
 5950W        W13352   0.268   8.674   1.783
 5951W        W13353   0.214   8.807   8.988
 5952W        W13354   5.232   0.229   9.637
 5953W        W13355   3.715   9.575   0.010
 5954W        W13356  15.915   3.722   8.755
 5955W        W13357  19.768   3.012   9.726
 5956W        W13358   7.212   2.486   9.160
 5957W        W13359  12.137   6.851   9.797
 5958W        W13360   6.103   0.659   2.418
 5959W        W13361  13.681   8.504   9.679
 5960W        W13362   7.242   6.205   0.506
 5961W        W13363  10.390   3.548   8.707
 5962W        W13364   0.839   8.958   0.663
 5963W        W13365  14.326   3.124   0.046
 5964W        W13366   6.336   7.156   1.764
 5965W        W13367  14.433   1.349   1.098
 5966W        W13368   2.054   2.162   8.112
 5967W        W13369  18.298   7.216   8.490
 5968W        W13370   5.970   6.047   7.962
 5969W        W13371   3.072   4.747   0.687
 5970W        W13372  14.825   9.874   0.150
 5971W        W13373  10.927   7.897   2.333
 5972W        W13374   5.221   1.007   0.093
 5973W        W13375   6.659   4.816   8.520
 5974W        W13376  13.000   5.248   8.425
 5975W        W13377   2.064   3.543   9.842
 5976W        W13378   8.132   9.960   2.253
 5977W        W13379   3.778   8.227   0.234
 5978W        W13380   3.733   6.596   8.970
 5979W        W13381   5.094   0.343   1.480
 5980W        W13382   2.648   6.646   9.797
 5981W        W13383  12.134   6.796   7.959
 5982W        W13384  14.645   3.896   1.614
 5983W        W13385  10.264   0.418   1.797
 5984W        W13386   5.438   0.483   8.040
 5985W        W13387  15.919   2.535   8.394
 5986W        W13388   8.587   1.064   1.747
 5987W        W13389   8.891   5.282   2.080
 5988W        W13390  10.830   5.746   8.470
 5989W        W13391  17.252   0.253   1.226
 5990W        W13392  17.495   1.307   9.794
 5991W        W13393  17.866   3.256   0.710
 5992W        W13394  10.673   8.893   1.176
 5993W        W13395  11.103   3.380   1.669
 5994W        W13396   7.988   8.331   7.671
 5995W        W13397  15.465   7.555   0.032
 5996W        W13398   6.090   9.696   2.348
 5997W        W13399  14.892   6.036   1.110
 5998W        W13400  11.708   3.327   1.422
 5999W        W13401   0.546   8.601   9.927
 6000W        W13402   6.018   9.188   2.273
 6001W        W13403  17.577   6.485   9.458
 6002W        W13404   3.761   0.856   1.413
 6003W        W13405  17.559   4.995   8.383
 6004W        W13406   5.327   2.761   7.512
 6005W        W13407  18.086   8.503   0.904
 6006W        W13408  11.119   3.830   0.188
 6007W        W13409   5.668   0.711   0.599
 6008W        W13410   8.186   9.190   8.804
 6009W        W13411   0.293   8.726   7.911
 6010W        W13412  16.481   9.502   0.335
 6011W        W13413  12.922   7.399   1.378
 6012W        W13414   1.188   0.249   8.931
 6013W        W13415  19.692   6.752   2.071
 6014W        W13416  10.089   7.605   8.408
 6015W        W13417  16.773   1.685   9.180
 6016W        W13418   5.240   9.746   8.676
 6017W        W13419   8.999   5.609   9.507
 6018W        W13420   1.107   0.863   8.193
 6019W        W13421  10.413   9.486   1.009
 6020W        W13422  19.425   0.189   8.661
 6021W        W13423   1.022   9.744   0.081
 6022W        W13424   3.186   2.937   7.867
 6023W        W13425   0.560   0.791   8.019
 6024W        W13426   2.290   7.683   9.511
 6025W        W13427  13.901   9.293   8.643
 6026W        W13428  15.461   1.085   9.957
 6027W        W13429  13.053   7.808   8.651
 6028W        W13430  15.689   0.626   9.780
 6029W        W13431  13.200   9.639   0.144
 6030W        W13432  16.985   1.282   9.883
 6031W        W13433  12.040   5.441   8.281
 6032W        W13434  16.599   5.191   1.919
 6033W        W13435  19.160   9.986   9.057
 6034W        W13436   2.474   3.667   0.636
 6035W        W13437   8.044   4.441   1.138
 6036W        W13438  16.575   6.726   0.279
 6037W        W13439  10.033   4.889   8.541
 6038W        W13440  15.314   2.564   1.529
 6039W        W13441  12.451   9.978   0.543
 6040W        W13442   0.730   6.988   7.716
 6041W        W13443   7.873   2.284   1.039
 6042W        W13444  12.603   3.561   1.010
 6043W        W13445  12.059   2.640   1.911
 6044W        W13446   5.888   3.935   8.113
 6045W        W13447  14.600   3.663   1.160
 6046W        W13448  11.519   0.754   0.561
 6047W        W13449   7.981   4.871   0.279
 6048W        W13450  14.432   7.951   8.273
 6049W        W13451   8.916   8.323   9.215
 6050W        W13452  14.094   5.015   0.915
 6051W        W13453  12.944   2.267   9.673
 6052W        W13454   6.234   8.515   0.192
 6053W        W13455   6.319   6.801   7.521
 6054W        W13456  15.072   7.612   2.041
 6055W        W13457  17.660   5.930   0.581
 6056W        W13458   7.669   3.932   7.499
 6057W        W13459  17.030   1.958   7.810
 6058W        W13460  14.358   3.090   2.013
 6059W        W13461   8.439   1.841   0.648
 6060W        W13462   6.402   1.735   8.343
 6061W        W13463   7.347   4.133   8.990
 6062W        W13464  16.644   9.022   9.186
 6063W        W13465  15.210   6.664   7.784
 6064W        W13466   2.320   8.033   9.155
 6065W        W13467   0.451   3.027   0.277
 6066W        W13468   1.851   9.065   0.702
 6067W        W13469   7.788   6.117   1.741
 6068W        W13470   5.976   7.580   0.404
 6069W        W13471   8.442   2.284   1.542
 6070W        W13472   3.973   5.823   7.693
 6071W        W13473   5.539   7.233   9.338
 6072W        W13474   5.039   5.518   0.219
 6073W        W13475  15.883   9.578   9.134
 6074W        W13476   0.248   3.804   2.145
 6075W        W13477  19.470   2.250   0.392
 6076W        W13478   0.807   4.857   8.635
 6077W        W13479   6.002   7.371   2.152
 6078W        W13480  11.961   0.804   0.291
 6079W        W13481  19.610   5.193   7.892
 6080W        W13482   1.865   1.497   2.117
 6081W        W13483   6.729   1.885   9.557
 6082W        W13484  12.535   8.180   0.258
 6083W        W13485   9.561   1.020   9.244
 6084W        W13486  11.277   6.049   9.329
 6085W        W13487   8.879   7.412   9.210
 6086W        W13488  16.272   6.217   8.730
 6087W        W13489   7.220   2.673   2.061
 6088W        W13490   1.559   5.454   2.564
 6089W        W13491   1.399   2.529   0.206
 6090W        W13492  13.404   4.958   8.620
 6091W        W13493  17.224   2.668   0.840
 6092W        W13494   8.017   8.793   7.954
 6093W        W13495   3.886   0.906   9.770
 6094W        W13496  14.616   9.648   1.435
 6095W        W13497  16.944   7.418   2.215
 6096W        W13498   8.803   5.663   9.026
 6097W        W13499  11.868   7.692   0.668
 6098W        W13500   0.701   3.501   0.919
 6099W        W13501  11.006   0.524   8.552
 6100W        W13502   5.323   4.842   7.965
 6101W        W13503   2.327   3.917   8.659
 6102W        W13504  19.279   2.390   1.508
 6103W        W13505  13.956   0.643   8.877
 6104W        W13506  17.573   8.932   8.448
 6105W        W13507  12.583   3.741   9.359
 6106W        W13508   9.577   6.350   7.769
 6107W        W13509   5.562   2.315   7.592
 6108W        W13510   0.133   3.621   8.369
 6109W        W13511  17.451   4.493   8.637
 6110W        W13512   0.449   7.449   8.545
 6111W        W13513   5.733   4.341   8.415
 6112W        W13514  19.270   3.722   2.543
 6113W        W13515  11.026   2.068   1.291
 6114W        W13516   7.324   9.988   9.306
 6115W        W13517   1.543   3.453   7.731
 6116W        W13518   8.834   0.968   7.660
 6117W        W13519   0.853   1.490   0.460
 6118W        W13520  11.765   4.475   1.689
 6119W        W13521   7.180   1.366   0.403
 6120W        W13522  16.356   3.941   2.470
 6121W        W13523   6.549   5.117   0.384
 6122W        W13524   1.559   7.222   9.678
 6123W        W13525  17.393   2.314   7.950
 6124W        W13526  17.649   0.126   0.233
 6125W        W13527  14.727   7.554   0.253
 6126W        W13528  10.883   9.399   1.185
 6127W        W13529  17.747   4.727   1.805
 6128W        W13530   2.873   2.219   9.816
 6129W        W13531  17.302   0.638   7.378
 6130W        W13532  11.296   0.117   8.392
 6131W        W13533   4.303   8.066   1.428
 6132W        W13534   6.992   2.797   0.041
 6133W        W13535   9.252   3.416   7.981
 6134W        W13536   6.527   3.716   0.381
 6135W        W13537  15.868   5.410   8.860
 6136W        W13538  16.491   1.149   7.879
 6137W        W13539  13.450   1.991   8.125
 6138W        W13540  17.802   7.745   2.310
 6139W        W13541  16.425   9.412   1.237
 6140W        W13542   6.354   9.443   1.988
 6141W        W13543  12.909   3.045   0.223
 6142W        W13544   1.799   5.771   9.349
 6143W        W13545   6.179   5.057   0.920
 6144W        W13546  18.458   0.560   1.542
 6145W        W13547  19.159   9.654   1.927
 6146W        W13548  18.111   5.645   7.553
 6147W        W13549  14.588   9.449   8.411
 6148W        W13550  11.258   7.913   8.090
 6149W        W13551   3.585   1.693   7.560
 6150W        W13552  15.271   5.294   0.441
 6151W        W13553   0.259   4.556   7.726
 6152W        W13554  16.987   3.192   2.010
 6153W        W13555  12.925   4.992   9.910
 6154W        W13556   8.978   4.897   0.860
 6155W        W13557  16.172   1.817   9.650
 6156W        W13558   5.538   6.805   0.790
 6157W        W13559   6.052   6.482   1.263
 6158W        W13560  13.586   2.121   1.670
 6159W        W13561  18.779   5.315   9.874
 6160W        W13562   9.557   7.570   1.762
 6161W        W13563  10.563   9.890   2.426
 6162W        W13564  19.642   5.590   8.234
 6163W        W13565  17.307   9.775   7.672
 6164W        W13566  19.800   7.840   0.937
 6165W        W13567  17.999   8.358   9.835
 6166W        W13568   7.326   2.364   7.945
 6167W        W13569   4.294   8.324   1.979
 6168W        W13570  12.100   2.177   1.732
 6169W        W13571   5.293   3.362   2.243
 6170W        W13572   7.178   8.331   7.715
 6171W        W13573  13.777   6.316   9.333
 6172W        W13574  18.562   4.037   0.485
 6173W        W13575   4.805   3.283   8.098
 6174W        W13576   5.817   9.813   7.590
 6175W        W13577  15.370   4.884   7.785
 6176W        W13578   6.626   0.707   2.373
 6177W        W13579   5.661   3.571   0.910
 6178W        W13580   0.585   8.383   8.430
 6179W        W13581  12.964   6.848   8.427
 6180W        W13582   2.513   4.768   7.806
 6181W        W13583  17.390   8.523   0.170
 6182W        W13584   8.331   5.866   9.113
 6183W        W13585  13.743   4.043   8.384
 6184W        W13586  15.838   5.804   1.013
 6185W        W13587  10.095   1.760   1.563
 6186W        W13588  14.288   4.171   0.002
 6187W        W13589  10.131   2.743   8.791
 6188W        W13590   2.367   4.418   1.304
 6189W        W13591  19.661   0.450   1.166
 6190W        W13592   8.738   6.719   1.155
 6191W        W13593   5.020   7.806   8.483
 6192W        W13594  16.412   6.109   2.304
 6193W        W13595  10.789   5.567   0.557
 6194W        W13596   2.439   5.865   8.752
 6195W        W13597   8.174   2.401   7.890
 6196W        W13598  14.299   7.276   0.797
 6197W        W13599   8.448   7.726   9.247
 6198W        W13600  13.946   2.427   0.292
 6199W        W13601  10.397   9.099   1.918
 6200W        W13602  17.728   9.828   8.491
 6201W        W13603   5.198   6.990   2.044
 6202W        W13604  11.498   9.780   2.093
 6203W        W13605  19.170   5.336   7.610
 6204W        W13606   2.943   8.834   9.268
 6205W        W13607  12.817   0.524   1.600
 6206W        W13608   8.364   6.807   9.739
 6207W        W13609  12.733   7.882   9.032
 6208W        W13610  16.346   2.484   9.686
 6209W        W13611  19.393   9.160   9.499
 6210W        W13612  19.994   6.746   2.479
 6211W        W13613  13.715   4.477   0.571
 6212W        W13614   1.308   6.793   8.536
 6213W        W13615   8.388   7.616   1.501
 6214W        W13616  19.420   8.406   1.480
 6215W        W13617   8.690   9.566   8.245
 6216W        W13618   4.239   5.104   9.791
 6217W        W13619   9.956   5.986   9.698
 6218W        W13620   0.658   1.153   7.653
 6219W        W13621   6.715   7.839   9.272
 6220W        W13622  10.391   8.720   0.759
 6221W        W13623   5.585   2.556   2.082
 6222W        W13624  18.877   2.674   9.445
 6223W        W13625  10.699   2.211   7.740
 6224W        W13626   5.384   5.474   0.578
 6225W        W13627   5.169   7.780   1.820
 6226W        W13628   3.959   0.739   0.948
 6227W        W13629   1.897   8.258   1.333
 6228W        W13630   9.458   0.824   9.708
 6229W        W13631  17.860   0.449   9.192
 6230W        W13632   0.818   3.855   9.891
 6231W        W13633  19.219   6.912   8.120
 6232W        W13634   7.229   9.462   9.671
 6233W        W13635  12.406   5.597   0.528
 6234W        W13636   7.488   1.952   1.034
 6235W        W13637   1.138   6.618   9.721
 6236W        W13638   7.917   5.221   0.677
 6237W        W13639   3.524   6.336   9.380
 6238W        W13640  15.380   1.058   0.853
 6239W        W13641  18.783   9.891   9.990
 6240W        W13642   5.327   7.372   7.985
 6241W        W13643  11.126   8.701   8.742
 6242W        W13644  12.447   5.097   0.151
 6243W        W13645  12.761   6.375   8.372
 6244W        W13646   7.570   7.731   8.240
 6245W        W13647  16.224   8.184   9.685
 6246W        W13648  17.197   3.620   2.319
 6247W        W13649   4.330   0.819   9.543
 6248W        W13650  16.507   7.596   8.453
 6249W        W13651   2.000   0.468   9.078
 6250W        W13652  14.107   3.762   1.120
 6251W        W13653  16.818   1.530   8.696
 6252W        W13654   3.914   8.441   1.647
 6253W        W13655  11.254   9.228   7.528
 6254W        W13656   5.464   2.820   0.350
 6255W        W13657   4.179   3.959   0.357
 6256W        W13658  14.637   2.592   7.800
 6257W        W13659   4.059   3.005   8.465
 6258W        W13660   0.127   2.661   0.393
 6259W        W13661  19.606   6.038   1.577
 6260W        W13662   8.785   3.802   9.342
 6261W        W13663   7.670   4.853   1.897
 6262W        W13664  11.152   7.490   8.436
 6263W        W13665   3.695   5.418   8.605
 6264W        W13666  15.315   3.588   0.616
 6265W        W13667  10.899   1.717   0.034
 6266W        W13668  15.919   7.532   2.310
 6267W        W13669   5.084   3.005   8.438
 6268W        W13670  12.902   6.376   9.664
 6269W        W13671  19.540   3.834   1.779
 6270W        W13672   0.964   9.372   0.416
 6271W        W13673   6.418   4.832   8.057
 6272W        W13674   1.799   8.756   9.734
 6273W        W13675   0.568   2.023   9.326
 6274W        W13676  19.764   2.600   9.087
 6275W        W13677   9.079   7.962   9.953
 6276W        W13678   8.341   1.793   2.496
 6277W        W13679   3.423   2.585   0.203
 6278W        W13680  18.712   5.814   9.765
 6279W        W13681  10.044   6.601   0.161
 6280W        W13682  13.088   7.217   2.378
 6281W        W13683   9.862   5.041   1.753
 6282W        W13684   6.365   3.487   8.291
 6283W        W13685   1.801   8.254   9.521
 6284W        W13686   5.045   5.540   9.703
 6285W        W13687   4.560   9.498   8.642
 6286W        W13688   5.035   5.485   9.196
 6287W        W13689   2.621   4.919   8.287
 6288W        W13690  15.346   1.422   9.573
 6289W        W13691   5.502   3.709   0.437
 6290W        W13692   8.503   3.625   2.307
 6291W        W13693   0.165   6.643   1.189
 6292W        W13694  13.106   2.262   8.685
 6293W        W13695   9.064   3.971   1.682
 6294W        W13696   9.416   0.091   9.453
 6295W        W13697   5.455   7.526   8.483
 6296W        W13698   1.592   5.952   1.485
 6297W        W13699  13.824   7.152   7.766
 6298W        W13700  11.306   8.897   1.738
 6299W        W13701   0.161   8.352   0.219
 6300W        W13702  18.307   5.434   9.130
 6301W        W13703  10.634   0.849   9.190
 6302W        W13704   8.181   4.788   0.733
 6303W        W13705   8.944   8.767   8.470
 6304W        W13706   9.745   2.485   9.519
 6305W        W13707  16.118   1.138   8.629
 6306W        W13708  18.111   1.346   1.424
 6307W        W13709   7.127   1.854   0.243
 6308W        W13710  15.455   2.441   8.085
 6309W        W13711  14.797   0.780   8.507
 6310W        W13712   7.785   9.680   0.139
 6311W        W13713   4.058   6.606   1.908
 6312W        W13714   0.331   7.907   8.834
 6313W        W13715   9.603   4.106   0.633
 6314W        W13716  10.773   2.083   0.393
 6315W        W13717   7.440   0.756   8.762
 6316W        W13718   4.927   0.764   8.802
 6317W        W13719   5.068   1.848   0.344
 6318W        W13720  12.672   1.835   9.730
 6319W        W13721   4.799   6.780   9.415
 6320W        W13722   8.868   7.877   9.488
 6321W        W13723   3.933   3.878   2.250
 6322W        W13724   7.679   5.364   9.670
 6323W        W13725  10.620   0.781   1.077
 6324W        W13726  16.646   5.369   1.446
 6325W        W13727   7.615   8.294   1.143
 6326W        W13728   1.555   2.029   0.452
 6327W        W13729   2.318   8.258   0.220
 6328W        W13730  17.481   7.465   1.968
 6329W        W13731   0.898   5.133   8.110
 6330W        W13732   0.080   0.727   8.205
 6331W        W13733  12.321   2.276   8.882
 6332W        W13734   0.609   8.292   7.438
 6333W        W13735   8.736   9.354   0.910
 6334W        W13736   4.997   7.928   8.985
 6335W        W13737  19.736   9.107   2.353
 6336W        W13738   7.534   9.027   1.679
 6337W        W13739  11.386   8.442   0.338
 6338W        W13740   3.793   5.579   0.538
 6339W        W13741   1.459   1.403   1.778
 6340W        W13742   3.868   5.944   1.769
 6341W        W13743  11.393   9.803   2.614
 6342W        W13744   5.901   8.874   9.620
 6343W        W13745  13.636   9.162   8.213
 6344W        W13746   1.371   7.273   8.385
 6345W        W13747  18.999   9.847   8.590
 6346W        W13748  15.643   6.698   1.850
 6347W        W13749   3.990   1.811   1.489
 6348W        W13750  10.994   5.623   1.022
 6349W        W13751   6.974   6.601   1.745
 6350W        W13752   7.921   3.093   9.807
 6351W        W13753   2.014   4.003   1.162
 6352W        W13754  19.231   5.367   0.955
 6353W        W13755  16.319   2.623   8.760
 6354W        W13756  19.599   2.030   1.715
 6355W        W13757   5.875   1.640   1.556
 6356W        W13758  10.028   4.349   0.502
 6357W        W13759   1.655   3.423   1.260
 6358W        W13760  11.681   4.644   7.640
 6359W        W13761   9.562   4.070   1.575
 6360W        W13762   8.509   5.485   9.397
 6361W        W13763  10.195   6.211   2.136
 6362W        W13764  13.982   7.992   9.555
 6363W        W13765   4.520   5.765   2.855
 6364W        W13766   2.108   5.982   2.317
 6365W        W13767  18.433   5.105   7.809
 6366W        W13768  12.030   8.758   8.142
 6367W        W13769   7.136   0.212   8.756
 6368W        W13770  19.826   1.163   9.171
 6369W        W13771   5.393   8.823   0.391
 6370W        W13772   9.546   6.535   0.249
 6371W        W13773  12.002   2.497   0.477
 6372W        W13774   1.937   7.577   1.318
 6373W        W13775   8.616   4.286   9.136
 6374W        W13776   2.348   6.903   7.719
 6375W        W13777  19.157   4.173   1.789
 6376W        W13778   7.415   2.460   7.435
 6377W        W13779  11.624   9.335   1.905
 6378W        W13780  13.949   5.650   8.335
 6379W        W13781   9.861   9.347   0.287
 6380W        W13782   1.076   2.276   0.517
 6381W        W13783  13.560   0.075   7.418
 6382W        W13784   3.910   1.702   9.296
 6383W        W13785   1.577   4.140   2.369
 6384W        W13786   2.104   8.044   8.698
 6385W        W13787   5.621   2.160   8.472
 6386W        W13788   6.356   5.525   9.639
 6387W        W13789   0.751   9.464   7.940
 6388W        W13790   4.951   3.595   9.112
 6389W        W13791  10.188   2.531   2.259
 6390W        W13792  10.562   4.359   9.625
 6391W        W13793  14.641   1.221   8.873
 6392W        W13794  11.549   6.068   8.884
 6393W        W13795  17.150   9.487   2.080
 6394W        W13796  13.156   6.529   0.998
 6395W        W13797  17.523   1.892   7.685
 6396W        W13798   6.047   8.813   8.575
 6397W        W13799   8.086   7.468   0.276
 6398W        W13800  19.157   4.498   2.230
 6399W        W13801   0.137   5.676   9.063
 6400W        W13802  15.363   2.540   0.453
 6401W        W13803   0.348   9.719   9.048
 6402W        W13804  16.309   5.318   0.144
 6403W        W13805   9.099   0.402   8.232
 6404W        W13806   2.341   7.435   2.192
 6405W        W13807   9.827   7.979   9.308
 6406W        W13808  14.835   4.497   0.823
 6407W        W13809   8.523   8.772   9.732
 6408W        W13810   1.789   5.027   9.778
 6409W        W13811  17.401   5.452   0.538
 6410W        W13812   7.040   9.010   1.018
 6411W        W13813  14.248   9.911   1.185
 6412W        W13814   6.317   9.780   7.993
 6413W        W13815  18.266   4.494   0.499
 6414W        W13816   2.358   0.442   9.431
 6415W        W13817  19.089   7.555   9.840
 6416W        W13818  10.097   5.154   0.729
 6417W        W13819   1.369   4.335   9.348
 6418W        W13820  11.390   0.298   1.342
 6419W        W13821   7.969   7.422   8.215
 6420W        W13822  14.767   8.648   1.447
 6421W        W13823   6.647   0.334   8.673
 6422W        W13824  16.784   9.996   0.061
 6423W        W13825   2.401   1.430   9.090
 6424W        W13826   8.438   8.358   0.024
 6425W        W13827   5.792   8.630   1.481
 6426W        W13828  14.969   5.839   8.550
 6427W        W13829  10.812   5.238   1.310
 6428W        W13830   8.070   4.307   0.649
 6429W        W13831  18.500   9.392   8.058
 6430W        W13832   4.283   2.089   8.128
 6431W        W13833  11.915   2.936   0.687
 6432W        W13834   7.703   1.048   9.743
 6433W        W13835   9.848   2.376   1.896
 6434W        W13836   6.682   7.318   8.463
 6435W        W13837   8.043   8.336   8.733
 6436W        W13838   0.600   4.055   0.956
 6437W        W13839   8.981   0.507   9.615
 6438W        W13840  19.757   8.504   9.001
 6439W        W13841  10.707   2.625   0.986
 6440W        W13842  16.704   3.597   2.163
 6441W        W13843   7.735   4.509   9.700
 6442W        W13844   2.454   9.580   2.418
 6443W        W13845   5.362   1.740   8.349
 6444W        W13846   9.982   0.268   8.695
 6445W        W13847   0.728   0.990   1.581
 6446W        W13848  19.874   9.233   9.673
 6447W        W13849  19.967   5.748   1.179
 6448W        W13850   3.056   2.977   9.324
 6449W        W13851  13.613   5.209   0.911
 6450W        W13852   5.957   5.556   9.261
 6451W        W13853  11.110   4.153   8.850
 6452W        W13854   6.307   1.779   2.345
 6453W        W13855  10.456   1.646   0.269
 6454W        W13856  16.008   9.124   1.137
 6455W        W13857  18.596   9.089   9.572
 6456W        W13858   5.494   9.122   9.383
 6457W        W13859  18.003   7.450   1.502
 6458W        W13860   9.333   8.885   0.806
 6459W        W13861   3.656   8.650   9.960
 6460W        W13862   4.051   0.364   8.402
 6461W        W13863  12.216   1.753   8.898
 6462W        W13864   5.310   5.035   1.997
 6463W        W13865   9.611   7.922   2.139
 6464W        W13866   7.034   5.806   0.278
 6465W        W13867  12.285   3.840   2.213
 6466W        W13868  15.560   7.506   9.531
 6467W        W13869  16.153   1.164   1.355
 6468W        W13870  16.427   8.263   1.260
 6469W        W13871  13.041   2.332   8.178
 6470W        W13872   0.493   7.947   9.312
 6471W        W13873  12.131   1.632   9.825
 6472W        W13874   5.375   4.308   8.788
 6473W        W13875  17.755   6.177   2.074
 6474W        W13876   8.143   0.386   0.191
 6475W        W13877  11.117   8.899   0.323
 6476W        W13878  17.018   7.339   9.641
 6477W        W13879   1.784   0.868   0.689
 6478W        W13880  12.895   9.636   1.629
 6479W        W13881   1.158   6.750   2.053
 6480W        W13882  16.317   3.437   0.770
 6481W        W13883  19.953   4.878   1.122
 6482W        W13884   5.015   8.891   9.096
 6483W        W13885   0.018   7.515   7.587
 6484W        W13886   4.754   3.923   8.364
 6485W        W13887  11.514   0.744   1.093
 6486W        W13888   6.116   1.158   8.959
 6487W        W13889  14.863   2.489   0.445
 6488W        W13890  10.490   5.964   8.822
 6489W        W13891   2.472   7.122   9.702
 6490W        W13892   4.598   8.494   8.931
 6491W        W13893  12.581   5.206   0.783
 6492W        W13894   4.619   9.151   0.722
 6493W        W13895  19.310   7.293   0.375
 6494W        W13896  15.489   2.777   7.688
 6495W        W13897  16.846   5.261   8.495
 6496W        W13898   2.028   6.450   2.096
 6497W        W13899   2.407   8.386   1.198
 6498W        W13900   5.728   2.482   0.025
 6499W        W13901  14.711   5.373   1.631
 6500W        W13902  11.668   2.139   8.387
 6501W        W13903  17.749   3.860   8.272
 6502W        W13904   5.105   0.546   9.253
 6503W        W13905   0.748   9.659   9.435
 6504W        W13906   7.992   1.845   8.185
 6505W        W13907  11.723   9.579   8.768
 6506W        W13908   1.109   8.027   1.601
 6507W        W13909  17.509   1.232   7.646
 6508W        W13910  17.800   5.251   9.412
 6509W        W13911   5.875   8.034   9.018
 6510W        W13912  10.340   1.216   0.543
 6511W        W13913   3.959   6.488   1.114
 6512W        W13914  10.551   6.912   8.891
 6513W        W13915  19.927   3.087   9.201
 6514W        W13916   9.767   9.706   8.047
 6515W        W13917   1.507   3.286   2.303
 6516W        W13918   4.111   3.443   2.050
 6517W        W13919   3.203   1.452   7.840
 6518W        W13920   9.169   4.185   0.245
 6519W        W13921  16.500   4.887   8.398
 6520W        W13922  12.189   3.040   8.277
 6521W        W13923  16.362   9.001   8.172
 6522W        W13924  11.176   4.592   2.181
 6523W        W13925   0.433   4.656   9.598
 6524W        W13926  16.340   3.114   7.548
 6525W        W13927  13.852   5.342   7.918
 6526W        W13928  14.038   9.414   0.503
 6527W        W13929   2.636   7.572   1.782
 6528W        W13930  15.162   1.178   2.336
 6529W        W13931   3.249   8.223   0.206
 6530W        W13932   2.723   6.748   9.287
 6531W        W13933  19.799   3.892   9.594
 6532W        W13934  15.616   9.345   9.963
 6533W        W13935  17.892   9.316   8.268
 6534W        W13936  13.546   1.986   7.605
 6535W        W13937  18.023   8.486   8.075
 6536W        W13938  19.326   3.319   8.062
 6537W        W13939  15.185   7.988   0.144
 6538W        W13940  19.336   3.704   1.167
 6539W        W13941  18.219   0.584   8.366
 6540W        W13942   1.454   2.983   9.407
 6541W        W13943  17.447   0.931   2.064
 6542W        W13944   0.634   8.801   8.703
 6543W        W13945   8.131   1.930   1.303
 6544W        W13946   6.440   6.461   8.738
 6545W        W13947   1.398   2.981   7.627
 6546W        W13948   2.991   4.510   8.531
 6547W        W13949  18.947   0.261   8.298
 6548W        W13950  19.458   2.923   9.337
 6549W        W13951  18.543   2.164   9.890
 6550W        W13952   5.162   5.333   7.817
 6551W        W13953   3.380   7.293   9.330
 6552W        W13954  13.224   7.303   8.459
 6553W        W13955   7.891   6.495   8.237
 6554W        W13956   8.937   7.527   0.203
 6555W        W13957  13.467   1.317   9.804
 6556W        W13958   8.767   7.830   7.912
 6557W        W13959  14.314   5.331   8.117
 6558W        W13960  15.493   6.786   2.345
 6559W        W13961  14.688   6.239   8.366
 6560W        W13962   9.719   6.497   8.873
 6561W        W13963  15.977   6.534   7.781
 6562W        W13964  15.188   3.261   7.747
 6563W        W13965   7.055   1.552   7.744
 6564W        W13966  14.867   9.239   8.802
 6565W        W13967  17.623   9.665   1.892
 6566W        W13968  14.512   0.226   7.933
 6567W        W13969  11.202   5.068   8.701
 6568W        W13970  19.817   0.154   0.303
 6569W        W13971  11.373   7.337   1.537
 6570W        W13972  19.074   1.331   9.681
 6571W        W13973  15.063   2.848   0.765
 6572W        W13974  11.915   9.895   2.419
 6573W        W13975   0.533   5.663   8.715
 6574W        W13976  11.935   2.612   8.985
 6575W        W13977   9.600   5.286   0.796
 6576W        W13978   5.035   2.920   0.738
 6577W        W13979   1.103   3.224   1.958
 6578W        W13980  14.302   6.397   9.587
 6579W        W13981  15.279   1.553   7.738
 6580W        W13982  12.228   8.097   0.741
 6581W        W13983   0.247   2.749   9.407
 6582W        W13984   4.921   4.302   0.786
 6583W        W13985  12.835   4.585   0.205
 6584W        W13986   0.361   1.093   8.423
 6585W        W13987  19.548   6.020   8.493
 6586W        W13988   5.538   2.600   1.571
 6587W        W13989  14.327   4.518   8.222
 6588W        W13990   0.207   8.795   8.430
 6589W        W13991   1.163   1.227   1.333
 6590W        W13992   8.659   2.233   7.629
 6591W        W13993   6.810   3.876   7.637
 6592W        W13994  11.781   1.164   9.978
 6593W        W13995   5.864   5.328   9.743
 6594W        W13996   2.061   4.154   7.696
 6595W        W13997  18.693   4.364   0.870
 6596W        W13998   8.574   0.102   0.218
 6597W        W13999  11.121   8.823   8.254
 6598W        W14000  11.331   9.286   8.440
 6599W        W14001  17.854   9.752   0.501
 6600W        W14002   7.301   9.816   0.397
 6601W        W14003  14.461   5.736   0.227
 6602W        W14004   3.743   2.316   8.082
 6603W        W14005  10.049   8.522   1.084
 6604W        W14006  18.822   3.496   2.416
 6605W        W14007  16.756   9.050   7.825
 6606W        W14008  18.736   0.179   1.341
 6607W        W14009  17.837   6.846   8.047
 6608W        W14010   6.041   3.479   1.804
 6609W        W14011  19.548   2.447   8.113
 6610W        W14012   7.135   7.525   9.277
 6611W        W14013   1.882   2.398   2.166
 6612W        W14014  10.219   8.560   8.521
 6613W        W14015  11.354   0.320   0.298
 6614W        W14016   1.946   3.474   8.044
 6615W        W14017  15.803   8.624   1.192
 6616W        W14018   8.568   6.111   7.620
 6617W        W14019  17.445   3.016   1.282
 6618W        W14020  15.014   9.207   8.309
 6619W        W14021  12.008   0.547   8.397
 6620W        W14022   5.744   3.929   9.622
 6621W        W14023  16.866   3.443   0.798
 6622W        W14024   1.390   0.554   1.831
 6623W        W14025  15.074   8.252   1.478
 6624W        W14026   2.870   1.672   9.127
 6625W        W14027   0.644   8.807   2.103
 6626W        W14028  15.715   9.855   7.928
 6627W        W14029   4.593   9.333   9.109
 6628W        W14030   5.004   7.291   8.388
 6629W        W14031  15.308   4.688   8.960
 6630W        W14032   2.824   9.122   8.714
 6631W        W14033   7.628   4.919   9.399
 6632W        W14034   7.528   2.224   9.511
 6633W        W14035  16.718   5.045   7.657
 6634W        W14036   2.775   2.373   2.333
 6635W        W14037   2.948   1.607   0.228
 6636W        W14038   7.884   0.613   0.555
 6637W        W14039  13.920   6.632   8.411
 6638W        W14040   3.668   4.043   8.413
 6639W        W14041   8.772   2.044   9.825
 6640W        W14042  17.436   5.499   9.174
 6641W        W14043  12.479   2.391   2.044
 6642W        W14044  14.967   9.486   1.767
 6643W        W14045  16.757   9.507   9.882
 6644W        W14046   9.144   8.650   7.754
 6645W        W14047  11.972   9.686   7.903
 6646W        W14048   4.574   6.961   9.848
 6647W        W14049   8.142   6.595   0.384
 6648W        W14050   4.757   0.554   0.746
 6649W        W14051   4.437   4.968   7.875
 6650W        W14052   8.887   8.772   1.732
 6651W        W14053  17.545   0.117   0.775
 6652W        W14054  10.984   7.522   7.879
 6653W        W14055   3.638   2.838   8.145
 6654W        W14056  14.758   7.606   8.465
 6655W        W14057   8.927   6.288   0.810
 6656W        W14058  11.437   2.573   8.253
 6657W        W14059   0.066   7.720   0.220
 6658W        W14060   0.817   7.992   8.681
 6659W        W14061  18.477   5.966   2.472
 6660W        W14062  19.764   6.458   9.265
 6661W        W14063  12.027   4.771   7.253
 6662W        W14064   7.162   7.893   7.997
 6663W        W14065  11.600   4.753   8.673
 6664W        W14066   3.050   9.958   0.299
 6665W        W14067   7.542   8.121   1.649
 6666W        W14068  13.234   2.699   8.927
 6667W        W14069  15.753   2.720   2.049
 6668W        W14070  12.647   6.042   0.708
 6669W        W14071   5.649   9.943   8.913
 6670W        W14072  17.520   5.217   1.809
 6671W        W14073   9.933   2.131   9.122
 6672W        W14074  10.864   1.043   8.744
 6673W        W14075  18.733   9.818   8.152
 6674W        W14076  19.090   6.737   1.281
 6675W        W14077   8.450   8.186   8.452
 6676W        W14078  19.469   5.803   1.113
 6677W        W14079  16.976   5.601   9.386
 6678W        W14080  18.800   7.791   7.887
 6679W        W14081  15.011   8.477   0.329
 6680W        W14082  12.610   6.476   0.097
 6681W        W14083   9.176   5.629   9.971
 6682W        W14084  10.450   0.371   0.825
 6683W        W14085   2.051   9.946   0.307
 6684W        W14086   7.150   5.085   9.187
 6685W        W14087  10.733   3.118   7.882
 6686W        W14088  17.262   3.400   8.277
 6687W        W14089  10.502   2.357   8.912
 6688W        W14090   7.133   5.038   9.684
 6689W        W14091   2.310   9.178   8.604
 6690W        W14092   5.518   3.430   1.756
 6691W        W14093   2.061   3.408   0.423
 6692W        W14094  13.893   8.694   1.188
 6693W        W14095   0.959   1.751   8.216
 6694W        W14096   8.110   2.274   0.581
 6695W        W14097  18.754   0.210   0.810
 6696W        W14098  15.344   2.689   9.964
 6697W        W14099   8.427   7.735   8.728
 6698W        W14100   1.235   6.981   9.374
 6699W        W14101   1.528   6.413   2.236
 6700W        W14102   4.984   6.835   8.590
 6701W        W14103  15.715   6.710   9.951
 6702W        W14104  18.724   6.945   7.943
 6703W        W14105  11.031   8.028   7.662
 6704W        W14106   2.178   6.230   0.820
 6705W        W14107   6.093   3.530   7.859
 6706W        W14108  10.675   2.454   2.487
 6707W        W14109   2.726   0.903   2.221
 6708W        W14110   7.682   2.992   9.368
 6709W        W14111  14.185   8.367   7.823
 6710W        W14112   1.235   7.527   1.514
 6711W        W14113  13.285   4.954   1.232
 6712W        W14114   9.775   1.767   0.749
 6713W        W14115   8.086   8.485   1.952
 6714W        W14116   9.341   7.011   0.357
 6715W        W14117   5.606   9.492   1.484
 6716W        W14118   2.960   8.120   9.055
 6717W        W14119   7.434   0.084   0.839
 6718W        W14120   2.299   9.833   1.596
 6719W        W14121   7.969   9.891   1.749
 6720W        W14122   9.896   7.088   1.068
 6721W        W14123  12.554   2.921   1.798
 6722W        W14124  14.605   9.822   8.807
 6723W        W14125  13.487   9.897   7.902
 6724W        W14126   4.042   4.475   8.528
 6725W        W14127   9.450   3.722   0.329
 6726W        W14128  15.365   3.225   0.943
 6727W        W14129  11.569   2.898   1.171
 6728W        W14130   3.594   1.139   8.562
 6729W        W14131  19.716   5.497   9.308
 6730W        W14132  10.241   6.433   8.862
 6731W        W14133   6.052   0.038   8.549
 6732W        W14134  14.507   9.640   9.276
 6733W        W14135  19.726   3.874   8.598
 6734W        W14136   6.532   6.606   1.088
 6735W        W14137  17.935   6.415   7.692
 6736W        W14138  18.245   1.855   1.570
 6737W        W14139  17.410   0.793   9.076
 6738W        W14140  14.140   6.156   8.401
 6739W        W14141   1.583   9.730   8.426
 6740W        W14142   1.240   7.754   8.906
 6741W        W14143  18.295   2.583   0.092
 6742W        W14144   4.031   7.822   0.022
 6743W        W14145  19.505   9.628   9.741
 6744W        W14146  13.071   5.259   0.892
 6745W        W14147   9.127   1.794   0.114
 6746W        W14148  18.772   5.176   0.733
 6747W        W14149   4.407   6.814   1.582
 6748W        W14150   1.608   4.931   7.432
 6749W        W14151   3.949   3.603   9.391
 6750W        W14152  18.017   5.103   1.623
 6751W        W14153  10.853   0.161   8.087
 6752W        W14154  18.128   2.863   0.486
 6753W        W14155  17.953   3.102   1.181
 6754W        W14156   7.020   4.197   8.577
 6755W        W14157   2.129   3.523   1.002
 6756W        W14158  11.056   6.850   9.765
 6757W        W14159   1.105   9.344   1.425
 6758W        W14160   1.023   8.463   8.188
 6759W        W14161   2.667   7.033   2.268
 6760W        W14162   6.117   5.610   7.666
 6761W        W14163   7.012   5.338   0.479
 6762W        W14164  18.575   7.175   0.870
 6763W        W14165   0.865   7.443   1.851
 6764W        W14166   2.183   4.821   0.387
 6765W        W14167  18.296   4.674   1.720
 6766W        W14168   0.877   7.092   9.758
 6767W        W14169   1.502   5.632   7.665
 6768W        W14170  18.067   2.339   0.480
 6769W        W14171  14.825   8.762   9.039
 6770W        W14172   3.198   6.031   0.245
 6771W        W14173  16.601   8.221   7.742
 6772W        W14174   3.674   0.962   0.590
 6773W        W14175   7.279   3.501   1.938
 6774W        W14176  18.242   1.475   8.196
 6775W        W14177   9.542   8.013   0.230
 6776W        W14178   8.336   6.303   9.983
 6777W        W14179   1.279   6.879   7.656
 6778W        W14180   0.451   5.260   7.909
 6779W        W14181   3.280   9.241   8.450
 6780W        W14182   9.731   9.234   0.802
 6781W        W14183  14.389   3.046   7.665
 6782W        W14184   8.011   1.351   9.467
 6783W        W14185   7.240   7.994   2.565
 6784W        W14186  19.545   7.648   8.528
 6785W        W14187   9.337   2.263   9.334
 6786W        W14188  17.904   3.207   0.171
 6787W        W14189   5.348   8.374   8.443
 6788W        W14190   0.570   2.615   8.458
 6789W        W14191  17.919   6.267   0.911
 6790W        W14192  13.219   3.953   8.356
 6791W        W14193  15.396   5.623   8.747
 6792W        W14194  16.911   0.906   0.227
 6793W        W14195  19.246   4.696   8.626
 6794W        W14196   3.075   0.658   9.324
 6795W        W14197   2.882   3.155   0.721
 6796W        W14198  19.867   5.609   1.687
 6797W        W14199  11.402   9.090   9.959
 6798W        W14200  12.018   9.904   0.279
 6799W        W14201  16.457   5.843   1.369
 6800W        W14202  13.360   5.300   0.472
 6801W        W14203   1.469   8.106   9.882
 6802W        W14204   8.443   4.325   2.362
 6803W        W14205  14.862   6.730   8.574
 6804W        W14206  16.282   4.881   2.568
 6805W        W14207   5.117   8.718   8.095
 6806W        W14208  17.998   2.482   2.291
 6807W        W14209  19.867   8.878   0.982
 6808W        W14210   9.065   7.740   2.042
 6809W        W14211   3.685   9.448   8.664
 6810W        W14212   0.053   5.857   8.590
 6811W        W14213   0.882   2.656   0.192
 6812W        W14214  18.904   1.142   8.723
 6813W        W14215  15.305   6.480   8.627
 6814W        W14216   3.689   1.484   0.601
 6815W        W14217  15.356   8.720   0.632
 6816W        W14218  15.542   3.348   8.737
 6817W        W14219   5.732   7.107   0.371
 6818W        W14220  11.540   5.135   9.885
 6819W        W14221  17.108   7.681   1.216
 6820W        W14222   9.258   7.240   7.801
 6821W        W14223  18.959   2.589   2.322
 6822W        W14224  12.396   6.475   8.777
 6823W        W14225   9.825   4.303   8.043
 6824W        W14226   6.235   0.864   8.245
 6825W        W14227  14.130   6.800   0.547
 6826W        W14228   1.312   5.908   9.466
 6827W        W14229  12.715   2.498   7.808
 6828W        W14230  13.265   9.810   1.963
 6829W        W14231  12.962   2.158   0.696
 6830W        W14232   9.161   2.260   8.480
 6831W        W14233  11.187   4.783   7.590
 6832W        W14234   7.460   4.937   8.375
 6833W        W14235   6.540   9.894   8.442
 6834W        W14236   0.768   5.499   1.723
 6835W        W14237  12.394   0.897   2.053
 6836W        W14238  19.700   7.947   1.449
 6837W        W14239  16.322   3.488   8.551
 6838W        W14240   9.808   7.071   0.171
 6839W        W14241  10.241   6.121   9.291
 6840W        W14242   7.033   9.084   1.543
 6841W        W14243   4.909   1.502   9.261
 6842W        W14244  18.963   8.348   8.517
 6843W        W14245   9.261   0.726   1.277
 6844W        W14246   1.695   2.041   7.731
 6845W        W14247  15.612   7.891   0.410
 6846W        W14248  17.651   5.979   7.571
 6847W        W14249   0.996   3.435   2.417
 6848W        W14250  18.888   1.163   1.132
 6849W        W14251   1.836   2.120   8.588
 6850W        W14252  15.020   0.793   1.172
 6851W        W14253  13.689   8.400   7.675
 6852W        W14254  13.548   6.973   8.170
 6853W        W14255   3.612   1.796   1.841
 6854W        W14256  18.669   2.145   1.615
 6855W        W14257   4.091   5.608   0.955
 6856W        W14258  18.687   5.565   7.830
 6857W        W14259  13.667   5.390   0.081
 6858W        W14260  18.265   3.776   8.276
 6859W        W14261   5.911   2.164   8.909
 6860W        W14262   0.274   8.013   0.615
 6861W        W14263  15.069   5.688   7.574
 6862W        W14264  19.937   3.102   0.209
 6863W        W14265   6.986   4.379   1.486
 6864W        W14266   1.850   5.228   8.417
 6865W        W14267   7.131   9.091   2.462
 6866W        W14268   5.729   4.829   2.227
 6867W        W14269  17.905   4.527   8.881
 6868W        W14270   5.242   0.432   7.522
 6869W        W14271   4.780   4.418   9.701
 6870W        W14272  18.247   2.734   0.984
 6871W        W14273  12.697   3.422   8.972
 6872W        W14274   2.780   7.518   9.661
 6873W        W14275  15.810   2.597   9.731
 6874W        W14276  18.061   4.049   0.364
 6875W        W14277   8.340   9.556   0.108
 6876W        W14278  14.892   8.781   8.010
 6877W        W14279   3.250   7.400   9.844
 6878W        W14280  17.298   0.063   9.853
 6879W        W14281   5.549   6.459   0.394
 6880W        W14282   9.842   0.239   0.191
 6881W        W14283  11.397   9.448   9.143
 6882W        W14284  15.490   2.755   1.061
 6883W        W14285   8.745   1.851   2.171
 6884W        W14286   1.453   8.275   9.007
 6885W        W14287   3.229   1.386   8.857
 6886W        W14288   8.022   8.335   8.208
 6887W        W14289  15.305   6.203   9.834
 6888W        W14290  16.458   3.151   2.287
 6889W        W14291   6.735   2.310   9.286
 6890W        W14292  18.777   2.628   8.173
 6891W        W14293  13.360   2.586   1.653
 6892W        W14294  18.003   3.467   2.034
 6893W        W14295  15.536   7.529   1.878
 6894W        W14296  11.855   1.379   7.984
 6895W        W14297  17.250   6.123   1.306
 6896W        W14298  12.034   4.227   9.821
 6897W        W14299   9.733   6.428   9.772
 6898W        W14300   7.287   6.122   1.554
 6899W        W14301   5.774   3.270   2.177
 6900W        W14302  16.158   5.270   8.240
 6901W        W14303  12.061   0.311   9.404
 6902W        W14304  17.797   2.085   1.418
 6903W        W14305  19.239   5.090   1.398
 6904W        W14306   0.663   8.862   8.202
 6905W        W14307   0.152   0.424   1.321
 6906W        W14308   5.256   5.550   2.156
 6907W        W14309  17.117   6.287   7.753
 6908W        W14310   8.094   3.012   2.248
 6909W        W14311  18.644   2.779   0.411
 6910W        W14312   2.381   0.520   2.262
 6911W        W14313  19.385   3.317   9.890
 6912W        W14314  13.753   3.312   8.903
 6913W        W14315  16.069   4.869   2.078
 6914W        W14316   3.385   1.671   9.293
 6915W        W14317  13.993   8.126   0.509
 6916W        W14318  15.779   7.118   2.079
 6917W        W14319   5.191   9.855   2.205
 6918W        W14320  19.314   8.583   8.811
 6919W        W14321   6.256   8.983   0.441
 6920W        W14322   2.025   6.209   0.291
 6921W        W14323  18.562   4.280   7.807
 6922W        W14324   3.525   6.974   9.691
 6923W        W14325  18.823   0.992   2.519
 6924W        W14326   5.783   5.439   0.902
 6925W        W14327   1.273   4.572   1.060
 6926W        W14328   8.378   5.407   0.815
 6927W        W14329  10.079   8.203   2.121
 6928W        W14330  12.479   9.700   7.971
 6929W        W14331  13.610   5.827   9.816
 6930W        W14332  11.765   7.802   8.104
 6931W        W14333  16.569   5.577   0.952
 6932W        W14334   6.257   6.980   1.294
 6933W        W14335  13.008   5.414   9.431
 6934W        W14336  18.609   5.925   1.561
 6935W        W14337   9.118   8.247   2.119
 6936W        W14338  10.706   9.578   8.778
 6937W        W14339  12.655   6.964   8.892
 6938W        W14340  16.819   2.460   8.528
 6939W        W14341   0.587   3.406   9.954
 6940W        W14342   3.350   0.705   8.445
 6941W        W14343   3.215   6.281   7.476
 6942W        W14344   5.239   5.007   0.368
 6943W        W14345  19.841   3.599   0.865
 6944W        W14346   7.456   6.499   1.881
 6945W        W14347   7.126   2.739   0.536
 6946W        W14348  14.407   3.136   9.519
 6947W        W14349  16.766   2.830   7.484
 6948W        W14350   3.159   6.417   7.978
 6949W        W14351  13.694   9.489   0.138
 6950W        W14352   3.223   1.387   0.862
 6951W        W14353  11.313   5.586   0.593
 6952W        W14354  12.969   7.431   0.873
 6953W        W14355   4.931   4.547   0.338
 6954W        W14356  17.374   6.321   8.951
 6955W        W14357   6.353   2.707   2.400
 6956W        W14358   2.073   5.624   7.880
 6957W        W14359   9.802   8.220   9.777
 6958W        W14360  16.470   0.020   7.650
 6959W        W14361  15.632   0.192   1.336
 6960W        W14362   5.873   5.845   9.665
 6961W        W14363  15.065   0.672   2.471
 6962W        W14364  10.032   4.683   1.405
 6963W        W14365  14.858   4.415   8.951
 6964W        W14366   9.069   8.903   9.865
 6965W        W14367   1.564   2.905   1.917
 6966W        W14368  15.050   3.384   8.906
 6967W        W14369  17.415   0.962   0.190
 6968W        W14370   8.716   4.552   8.682
 6969W        W14371   7.924   5.230   8.486
 6970W        W14372  19.618   1.197   2.104
 6971W        W14373  16.916   2.509   8.026
 6972W        W14374   0.422   4.166   8.030
 6973W        W14375   5.523   9.074   2.270
 6974W        W14376  13.863   5.116   1.361
 6975W        W14377   0.996   0.293   1.107
 6976W        W14378  10.909   8.700   0.744
 6977W        W14379  17.677   1.128   1.610
 6978W        W14380   7.833   6.965   0.701
 6979W        W14381   0.072   7.127   7.971
 6980W        W14382  12.074   6.006   9.813
 6981W        W14383   1.648   8.705   9.263
 6982W        W14384   7.497   7.105   1.895
 6983W        W14385   3.250   5.300   1.293
 6984W        W14386   1.157   6.128   9.898
 6985W        W14387  12.313   5.999   9.358
 6986W        W14388   1.947   9.898   9.811
 6987W        W14389   0.194   5.052   2.060
 6988W        W14390  19.584   4.696   1.423
 6989W        W14391  18.411   6.544   1.753
 6990W        W14392   8.667   7.436   1.910
 6991W        W14393  19.376   3.426   0.746
 6992W        W14394  17.726   5.532   7.900
 6993W        W14395  19.010   9.511   9.098
 6994W        W14396  10.523   0.397   7.750
 6995W        W14397  19.294   6.436   8.313
 6996W        W14398   4.878   1.284   7.812
 6997W        W14399   0.408   0.030   9.518
 6998W        W14400   8.267   0.714   1.535
 6999W        W14401  13.369   4.558   9.351
 7000W        W14402  18.436   1.163   8.555
 7001W        W14403  19.780   4.516   7.942
 7002W        W14404   4.794   6.071   1.152
 7003W        W14405  16.264   1.655   1.227
 7004W        W14406  14.892   2.904   7.509
 7005W        W14407   3.224   0.714   2.199
 7006W        W14408  18.394   2.918   8.333
 7007W        W14409  17.287   9.880   8.227
 7008W        W14410   4.482   1.191   7.485
 7009W        W14411  14.565   6.693   2.194
 7010W        W14412  16.968   6.590   1.836
 7011W        W14413   8.340   0.949   2.316
 7012W        W14414   7.490   5.164   1.483
 7013W        W14415  11.771   2.480   1.454
 7014W        W14416   3.193   6.463   0.637
 7015W        W14417  15.917   3.488   1.682
 7016W        W14418  18.907   6.919   8.984
 7017W        W14419  15.271   9.434   0.879
 7018W        W14420   4.414   3.802   2.281
 7019W        W14421   5.481   5.667   9.956
 7020W        W14422   9.660   6.912   7.935
 7021W        W14423   6.612   1.056   1.625
 7022W        W14424   5.465   6.562   7.962
 7023W        W14425  18.411   9.803   1.248
 7024W        W14426  13.970   3.437   1.932
 7025W        W14427   7.983   7.443   8.739
 7026W        W14428   7.830   5.249   2.239
 7027W        W14429  17.148   7.010   2.477
 7028W        W14430   8.156   0.046   8.820
 7029W        W14431   0.112   3.248   8.738
 7030W        W14432  14.652   1.024   0.086
 7031W        W14433   3.318   6.886   8.178
 7032W        W14434  10.511   6.785   1.380
 7033W        W14435   0.169   5.542   9.568
 7034W        W14436  19.744   6.032   8.969
 7035W        W14437   8.885   7.407   8.183
 7036W        W14438   1.061   8.072   1.073
 7037W        W14439  11.592   9.908   1.051
 7038W        W14440   8.471   8.173   8.986
 7039W        W14441   6.710   2.505   0.337
 7040W        W14442  18.953   3.081   0.063
 7041W        W14443   7.713   7.849   0.320
 7042W        W14444   1.106   0.696   1.406
 7043W        W14445   6.305   4.611   0.138
 7044W        W14446  12.818   5.938   9.400
 7045W        W14447  15.947   3.136   2.373
 7046W        W14448  15.707   4.391   2.046
 7047W        W14449   3.589   3.728   9.722
 7048W        W14450   8.643   3.116   3.062
 7049W        W14451  19.315   5.586   1.538
 7050W        W14452   6.339   9.085   8.925
 7051W        W14453  16.972   4.492   2.382
 7052W        W14454  11.566   9.798   0.053
 7053W        W14455   2.275   5.044   9.936
 7054W        W14456  16.713   7.764   7.976
 7055W        W14457  10.298   8.762   1.521
 7056W        W14458   6.880   3.451   1.139
 7057W        W14459  11.035   0.438   7.614
 7058W        W14460   5.813   7.243   0.855
 7059W        W14461   6.976   6.627   0.333
 7060W        W14462  14.004   1.690   2.507
 7061W        W14463  19.738   8.559   8.451
 7062W        W14464  17.416   8.668   2.063
 7063W        W14465  16.290   3.857   1.612
 7064W        W14466   4.120   1.246   9.369
 7065W        W14467  10.772   6.036   0.247
 7066W        W14468   5.010   6.532   1.205
 7067W        W14469   4.311   1.331   2.185
 7068W        W14470   0.072   9.352   0.675
 7069W        W14471  16.631   3.377   0.372
 7070W        W14472   0.004   4.013   1.090
 7071W        W14473  18.228   7.678   8.233
 7072W        W14474   0.593   2.513   0.590
 7073W        W14475  18.697   1.689   1.375
 7074W        W14476   8.617   0.605   2.003
 7075W        W14477   8.413   9.217   0.516
 7076W        W14478   1.959   1.055   8.355
 7077W        W14479  17.490   2.090   9.636
 7078W        W14480  13.928   2.350   1.984
 7079W        W14481  13.582   0.217   9.595
 7080W        W14482  15.836   2.482   8.886
 7081W        W14483   8.244   5.663   8.422
 7082W        W14484   6.970   0.293   1.053
 7083W        W14485   2.510   6.082   0.467
 7084W        W14486   8.417   9.110   7.947
 7085W        W14487   6.381   5.684   1.559
 7086W        W14488  16.023   6.680   2.244
 7087W        W14489   6.075   4.103   1.335
 7088W        W14490  16.816   9.347   8.808
 7089W        W14491  19.853   7.089   9.298
 7090W        W14492   2.447   8.601   2.124
 7091W        W14493  16.069   8.538   0.381
 7092W        W14494   3.066   5.268   0.834
 7093W        W14495   1.706   9.437   9.806
 7094W        W14496  10.912   3.963   0.634
 7095W        W14497   8.462   3.613   8.528
 7096W        W14498  11.345   6.979   9.335
 7097W        W14499   8.572   2.701   1.801
 7098W        W14500  11.322   9.844   9.433
 7099W        W14501   5.571   0.637   0.105
 7100W        W14502  11.449   0.682   2.160
 7101W        W14503   3.379   3.063   2.093
 7102W        W14504  19.395   9.158   8.957
 7103W        W14505   9.668   4.033   2.087
 7104W        W14506  10.333   1.916   8.665
 7105W        W14507  11.389   1.680   9.274
 7106W        W14508   1.722   4.292   0.868
 7107W        W14509  11.739   4.406   0.296
 7108W        W14510  19.895   7.207   2.337
 7109W        W14511  12.961   1.875   8.382
 7110W        W14512  19.305   2.922   0.810
 7111W        W14513  12.700   2.878   8.207
 7112W        W14514  11.110   8.634   9.890
 7113W        W14515  12.473   3.256   0.042
 7114W        W14516  11.949   9.987   1.904
 7115W        W14517   6.962   9.276   8.327
 7116W        W14518   3.617   3.473   2.272
 7117W        W14519   9.816   2.964   9.334
 7118W        W14520   9.545   6.547   1.580
 7119W        W14521   1.584   9.435   1.027
 7120W        W14522   0.673   2.920   9.805
 7121W        W14523  13.754   0.873   7.772
 7122W        W14524  16.924   9.985   7.363
 7123W        W14525  15.152   0.222   1.078
 7124W        W14526   6.859   0.233   9.178
 7125W        W14527  19.829   7.277   0.315
 7126W        W14528  17.302   6.158   1.815
 7127W        W14529   9.273   9.149   7.725
 7128W        W14530  15.912   8.345   2.144
 7129W        W14531   2.607   8.532   1.636
 7130W        W14532  16.475   2.937   0.708
 7131W        W14533   6.575   0.280   9.593
 7132W        W14534  18.263   6.794   7.756
 7133W        W14535  17.070   5.746   2.339
 7134W        W14536  10.661   3.901   9.953
 7135W        W14537   0.587   8.358   8.960
 7136W        W14538  13.100   4.503   9.777
 7137W        W14539  13.951   6.482   1.376
 7138W        W14540   4.136   8.225   9.006
 7139W        W14541  11.253   4.663   9.040
 7140W        W14542  16.819   1.715   0.685
 7141W        W14543   5.751   9.363   9.747
 7142W        W14544  14.407   1.360   9.761
 7143W        W14545   6.699   2.493   1.380
 7144W        W14546   9.194   5.861   0.710
 7145W        W14547   5.471   2.158   9.724
 7146W        W14548  17.307   6.682   8.057
 7147W        W14549   7.089   5.671   1.703
 7148W        W14550  13.748   9.848   0.478
 7149W        W14551  18.697   3.559   0.386
 7150W        W14552   4.661   2.155   9.419
 7151W        W14553  17.447   9.080   1.297
 7152W        W14554   3.716   1.329   9.016
 7153W        W14555   7.001   7.167   1.758
 7154W        W14556  19.497   0.704   2.017
 7155W        W14557   4.855   3.089   8.936
 7156W        W14558   0.600   1.601   9.019
 7157W        W14559   8.141   1.725   9.155
 7158W        W14560   2.017   6.975   9.837
 7159W        W14561  15.472   6.023   8.445
 7160W        W14562   8.327   4.484   8.352
 7161W        W14563   2.223   3.927   8.154
 7162W        W14564   6.618   4.369   8.219
 7163W        W14565   8.095   2.706   9.458
 7164W        W14566   6.994   0.230   1.564
 7165W        W14567   9.706   2.586   9.018
 7166W        W14568  14.613   8.315   2.260
 7167W        W14569   6.957   8.339   2.801
 7168W        W14570  19.180   0.270   1.116
 7169W        W14571   0.767   7.407   1.342
 7170W        W14572  18.350   5.471   1.523
 7171W        W14573  15.383   4.576   9.880
 7172W        W14574  18.508   4.870   9.846
 7173W        W14575   7.363   3.063   7.906
 7174W        W14576   2.593   7.053   1.730
 7175W        W14577  19.406   6.853   9.130
 7176W        W14578  16.523   2.078   9.950
 7177W        W14579   4.793   7.459   9.804
 7178W        W14580  13.122   6.533   0.098
 7179W        W14581  15.033   8.454   7.637
 7180W        W14582  10.574   3.320   2.320
 7181W        W14583   3.756   0.711   7.667
 7182W        W14584   0.275   1.886   8.694
 7183W        W14585  10.062   4.170   1.440
 7184W        W14586  16.458   9.135   1.693
 7185W        W14587   6.143   5.164   2.462
 7186W        W14588   6.287   8.095   9.335
 7187W        W14589  17.927   6.510   2.899
 7188W        W14590  15.488   3.479   0.138
 7189W        W14591   4.874   5.128   2.259
 7190W        W14592   7.222   7.644   0.818
 7191W        W14593   7.036   1.065   1.930
 7192W        W14594  11.080   9.881   0.295
 7193W        W14595   1.064   9.044   7.965
 7194W        W14596   1.337   2.104   8.846
 7195W        W14597   2.673   2.695   0.655
 7196W        W14598  10.794   7.394   0.992
 7197W        W14599  15.025   3.049   1.885
 7198W        W14600  13.144   8.212   9.039
 7199W        W14601   8.597   4.518   0.822
 7200W        W14602   0.177   0.809   9.171
 7201W        W14603   5.660   8.471   8.846
 7202W        W14604   2.164   9.172   8.101
 7203W        W14605   4.206   3.981   8.466
 7204W        W14606   6.838   6.311   0.809
 7205W        W14607   9.664   1.787   1.262
 7206W        W14608   0.437   6.817   9.949
 7207W        W14609   1.075   6.185   8.937
 7208W        W14610  17.981   5.980   0.184
 7209W        W14611  19.518   7.754   9.651
 7210W        W14612   3.224   4.494   7.647
 7211W        W14613   5.173   4.130   1.798
 7212W        W14614  15.935   8.086   1.207
 7213W        W14615   2.770   4.542   7.369
 7214W        W14616  18.760   0.637   1.086
 7215W        W14617  19.689   2.799   1.123
 7216W        W14618   0.637   9.026   2.602
 7217W        W14619   9.578   4.784   2.129
 7218W        W14620   3.480   9.539   0.934
 7219W        W14621  16.990   2.074   9.753
 7220W        W14622  11.795   6.029   9.349
 7221W        W14623  19.395   6.037   7.999
 7222W        W14624   8.479   3.106   2.577
 7223W        W14625   2.623   6.333   8.965
 7224W        W14626   1.526   4.264   0.099
 7225W        W14627   4.002   2.202   2.583
 7226W        W14628  17.140   8.447   7.639
 7227W        W14629   3.869   2.587   9.368
 7228W        W14630   1.079   7.585   0.967
 7229W        W14631  13.543   0.169   8.347
 7230W        W14632  16.611   6.952   1.188
 7231W        W14633  11.477   8.983   2.248
 7232W        W14634   2.122   3.011   9.091
 7233W        W14635  11.474   5.521   1.684
 7234W        W14636  15.191   5.801   0.765
 7235W        W14637   5.250   5.749   7.510
 7236W        W14638  16.974   0.742   2.094
 7237W        W14639   8.495   7.706   9.782
 7238W        W14640   3.571   3.116   8.589
 7239W        W14641  16.274   7.802   9.261
 7240W        W14642   2.257   6.761   0.746
 7241W        W14643   9.583   3.521   2.365
 7242W        W14644   4.193   5.736   1.434
 7243W        W14645   1.096   7.108   1.117
 7244W        W14646   7.055   6.180   2.045
 7245W        W14647   4.018   8.803   9.614
 7246W        W14648   4.923   0.899   1.690
 7247W        W14649   1.160   2.125   7.922
 7248W        W14650   6.427   0.334   2.091
 7249W        W14651  18.431   0.211   8.073
 7250W        W14652   2.722   5.286   9.897
 7251W        W14653   1.903   1.560   0.427
 7252W        W14654  15.117   1.013   9.234
 7253W        W14655  16.968   1.281   0.904
 7254W        W14656  17.164   2.933   9.540
 7255W        W14657   4.538   7.126   8.581
 7256W        W14658   7.600   5.371   9.157
 7257W        W14659  12.119   6.010   0.710
 7258W        W14660  16.278   2.446   0.719
 7259W        W14661   8.122   4.822   1.574
 7260W        W14662  11.212   9.339   2.524
 7261W        W14663   7.501   5.088   0.971
 7262W        W14664   1.922   3.057   0.996
 7263W        W14665   4.320   8.441   9.422
 7264W        W14666  18.948   2.173   1.184
 7265W        W14667  13.723   6.612   1.838
 7266W        W14668  12.015   9.937   1.334
 7267W        W14669   4.657   5.693   8.469
 7268W        W14670  16.316   4.561   8.841
 7269W        W14671   9.924   9.512   1.202
 7270W        W14672   6.382   1.668   9.866
 7271W        W14673  17.962   9.827   0.992
 7272W        W14674  13.933   0.159   8.660
 7273W        W14675  15.580   4.662   8.486
 7274W        W14676  11.045   0.290   2.108
 7275W        W14677  15.388   3.478   8.177
 7276W        W14678   1.770   5.012   8.869
 7277W        W14679   4.268   6.781   9.289
 7278W        W14680   5.607   4.156   1.128
 7279W        W14681  13.927   1.389   2.038
 7280W        W14682   2.160   7.373   1.718
 7281W        W14683  15.121   6.262   9.315
 7282W        W14684   3.026   6.659   8.860
 7283W        W14685  16.893   5.470   0.541
 7284W        W14686  15.874   4.415   0.751
 7285W        W14687  19.773   1.660   2.261
 7286W        W14688  10.932   3.448   9.926
 7287W        W14689  10.498   2.169   2.062
 7288W        W14690  18.021   2.171   9.981
 7289W        W14691  12.914   5.064   0.419
 7290W        W14692   9.766   2.020   0.304
 7291W        W14693  13.568   2.311   8.943
 7292W        W14694   1.430   9.687   8.903
 7293W        W14695  16.467   1.252   9.962
 7294W        W14696   3.218   5.724   2.385
 7295W        W14697   0.306   4.059   8.511
 7296W        W14698  18.981   9.018   9.222
 7297W        W14699  11.872   3.043   2.145
 7298W        W14700   9.333   2.684   2.080
 7299W        W14701  12.546   3.060   0.972
 7300W        W14702   7.564   2.060   0.541
 7301W        W14703   7.392   0.421   8.368
 7302W        W14704  14.911   9.672   9.562
 7303W        W14705  11.640   1.194   9.279
 7304W        W14706   0.563   9.088   7.663
 7305W        W14707  18.699   6.387   0.451
 7306W        W14708   9.786   1.739   8.796
 7307W        W14709   9.898   1.297   1.334
 7308W        W14710   6.117   3.992   1.846
 7309W        W14711   9.105   5.236   8.320
 7310W        W14712  11.584   5.460   2.173
 7311W        W14713   3.161   3.040   0.158
 7312W        W14714   3.775   9.491   9.154
 7313W        W14715  18.965   4.894   0.114
 7314W        W14716   7.493   8.930   0.799
 7315W        W14717   9.119   4.877   2.382
 7316W        W14718   4.339   3.842   9.650
 7317W        W14719   0.754   2.372   1.883
 7318W        W14720  19.379   5.133   8.338
 7319W        W14721   8.233   9.581   0.857
 7320W        W14722  13.854   9.704   1.455
 7321W        W14723   7.302   8.085   0.530
 7322W        W14724  16.552   1.237   8.375
 7323W        W14725  11.920   5.609   1.447
 7324W        W14726   2.049   6.519   8.001
 7325W        W14727  12.337   8.576   0.006
 7326W        W14728  15.399   0.693   0.278
 7327W        W14729  11.940   8.700   9.130
 7328W        W14730  14.975   3.608   8.454
 7329W        W14731  15.764   4.621   7.986
 7330W        W14732  13.090  10.004   9.792
 7331W        W14733   5.267   2.805   9.004
 7332W        W14734   9.491   3.050   8.944
 7333W        W14735  11.071   5.153   0.807
 7334W        W14736   0.525   7.034   8.223
 7335W        W14737   0.892   1.907   1.387
 7336W        W14738   7.903   9.598   8.713
 7337W        W14739  15.873   5.551   7.890
 7338W        W14740   3.176   2.113   0.236
 7339W        W14741   9.324   2.135   1.104
 7340W        W14742   1.959   2.562   8.832
 7341W        W14743   1.012   5.657   8.978
 7342W        W14744  10.863   7.929   9.370
 7343W        W14745  13.392   1.993   0.947
 7344W        W14746  18.302   5.316   9.625
 7345W        W14747   1.960   9.442   1.668
 7346W        W14748   7.220   2.006   7.581
 7347W        W14749  14.100   3.047   1.571
 7348W        W14750  10.315   0.299   9.914
 7349W        W14751  18.628   4.476   1.374
 7350W        W14752  14.108   8.445   9.330
 7351W        W14753   8.066   2.566   1.993
 7352W        W14754   4.433   6.919   7.771
 7353W        W14755  12.856   6.267   7.799
 7354W        W14756  18.621   7.612   0.028
 7355W        W14757  19.600   6.925   0.630
 7356W        W14758  13.850   9.631   0.940
 7357W        W14759  13.254   3.664   7.934
 7358W        W14760  10.757   0.696   8.122
 7359W        W14761  15.571   8.667   1.897
 7360W        W14762   7.661   9.159   2.463
 7361W        W14763   9.805   3.387   0.115
 7362W        W14764   4.822   3.428   9.609
 7363W        W14765  11.853   9.190   7.626
 7364W        W14766  13.201   3.414   8.875
 7365W        W14767  18.262   1.040   0.761
 7366W        W14768   4.948   7.428   2.100
 7367W        W14769  15.067   3.612   9.361
 7368W        W14770  17.807   1.023   0.517
 7369W        W14771   3.576   3.014   9.317
 7370W        W14772  11.971   0.788   0.792
 7371W        W14773   0.518   9.255   9.145
 7372W        W14774   3.390   0.848   9.666
 7373W        W14775   6.083   5.435   1.996
 7374W        W14776   4.576   5.606   1.097
 7375W        W14777  11.272   3.429   1.190
 7376W        W14778  17.451   6.454   9.966
 7377W        W14779   6.701   8.358   0.024
 7378W        W14780  12.883   8.832   9.208
 7379W        W14781  14.770   7.483   1.177
 7380W        W14782   2.488   6.176   9.974
 7381W        W14783  10.704   1.181   2.439
 7382W        W14784   5.100   3.291   1.478
 7383W        W14785   7.718   9.851   1.216
 7384W        W14786  19.503   7.732   0.173
 7385W        W14787   5.004   5.868   0.740
 7386W        W14788  16.097   3.974   9.870
 7387W        W14789   1.544   1.676   9.077
 7388W        W14790   1.460   9.365   0.531
 7389W        W14791  11.218   0.916   7.807
 7390W        W14792   0.547   2.315   8.864
 7391W        W14793   3.908   6.985   7.807
 7392W        W14794   9.367   6.786   7.533
 7393W        W14795   0.209   6.219   9.007
 7394W        W14796   8.896   8.308   8.158
 7395W        W14797   9.421   4.529   1.433
 7396W        W14798   0.390   4.235   2.404
 7397W        W14799  10.949   6.021   8.037
 7398W        W14800   1.625   9.695   7.917
 7399W        W14801  17.804   8.918   8.923
 7400W        W14802  13.423   7.485   0.628
 7401W        W14803  11.265   3.045   9.565
 7402W        W14804   6.819   2.529   2.331
 7403W        W14805   2.108   8.398   1.786
 7404W        W14806   2.321   2.456   9.442
 7405W        W14807  10.173   5.395   1.470
 7406W        W14808  12.097   6.441   0.106
 7407W        W14809  19.634   7.194   8.775
 7408W        W14810  13.010   4.372   0.666
 7409W        W14811  15.868   7.230   9.826
 7410W        W14812  17.282   2.511   9.831
 7411W        W14813   8.731   4.341   0.026
 7412W        W14814  17.565   8.174   2.133
 7413W        W14815   4.030   5.629   8.979
 7414W        W14816  18.021   5.021   8.600
 7415W        W14817  19.331   5.171   9.378
 7416W        W14818  18.910   2.256   9.136
 7417W        W14819   4.557   2.600   1.917
 7418W        W14820  12.194   1.311   8.612
 7419W        W14821   9.628   1.464   8.399
 7420W        W14822  13.707   2.765   8.080
 7421W        W14823   4.228   8.119   2.430
 7422W        W14824   4.386   3.028   2.125
 7423W        W14825   6.567   6.356   2.006
 7424W        W14826  16.538   8.270   1.772
 7425W        W14827   5.903   6.668   2.546
 7426W        W14828   4.289   9.945   8.087
 7427W        W14829  18.342   9.776   9.751
 7428W        W14830  17.031   0.354   7.685
 7429W        W14831  15.938   1.969   0.962
 7430W        W14832   5.514   5.886   0.846
 7431W        W14833   6.195   1.947   1.310
 7432W        W14834  13.868   0.770   0.398
 7433W        W14835  11.597   4.306   8.937
 7434W        W14836   6.902   2.619   8.219
 7435W        W14837  10.327   2.677   1.321
 7436W        W14838  13.635   6.968   8.668
 7437W        W14839  14.392   8.965   8.608
 7438W        W14840  14.486   7.417   8.052
 7439W        W14841   4.561   3.788   8.815
 7440W        W14842   7.579   7.345   9.548
 7441W        W14843   3.363   8.693   2.147
 7442W        W14844   4.403   7.403   1.297
 7443W        W14845  19.587   4.547   2.520
 7444W        W14846  11.309   6.888   0.789
 7445W        W14847   6.201   9.928   1.900
 7446W        W14848  16.494   6.503   1.008
 7447W        W14849   7.905   6.565   9.285
 7448W        W14850  15.275   4.504   8.113
 7449W        W14851   2.274   9.949   8.014
 7450W        W14852  13.405   9.406   1.631
 7451W        W14853   1.710   9.623   9.332
 7452W        W14854   7.784   0.024   8.443
 7453W        W14855  14.485   5.165   7.638
 7454W        W14856  10.094   8.900   0.239
 7455W        W14857  12.160   4.457   1.354
 7456W        W14858   8.929   3.950   1.172
 7457W        W14859   1.433   1.183   0.888
 7458W        W14860  11.987   7.805   8.564
 7459W        W14861  11.384   7.861   1.569
 7460W        W14862  13.345   3.974   0.527
 7461W        W14863   6.235   2.792   1.520
 7462W        W14864   0.463   5.186   8.892
 7463W        W14865  13.826   0.743   9.396
 7464W        W14866   4.050   6.981   9.716
 7465W        W14867  10.808   8.077   1.527
 7466W        W14868   1.174   4.701   9.054
 7467W        W14869  19.194   6.251   2.140
 7468W        W14870   7.532   6.902   9.838
 7469W        W14871   0.208   0.170   9.973
 7470W        W14872   6.223   0.272   9.984
 7471W        W14873  19.934   3.944   0.107
 7472W        W14874   7.505   6.776   7.806
 7473W        W14875   3.132   7.319   0.728
 7474W        W14876  12.337   5.581   9.666
 7475W        W14877   4.300   8.231   0.264
 7476W        W14878   0.883   0.421   8.141
 7477W        W14879  18.132   9.209   0.154
 7478W        W14880  15.987   6.317   1.871
 7479W        W14881   7.633   0.279   8.883
 7480W        W14882   6.819   8.612   1.541
 7481W        W14883  16.967   1.661   1.986
 7482W        W14884   9.072   7.952   0.474
 7483W        W14885   6.264   9.259   7.978
 7484W        W14886  11.113   7.855   1.101
 7485W        W14887   5.459   3.253   7.456
 7486W        W14888  15.872   1.622   8.368
 7487W        W14889   0.204   3.530   0.254
 7488W        W14890  19.744   2.558   1.860
 7489W        W14891  13.381   0.510   9.209
 7490W        W14892   8.011   7.008   0.068
 7491W        W14893  16.433   2.994   8.434
 7492W        W14894  18.797   6.478   8.199
 7493W        W14895   7.012   7.424   1.253
 7494W        W14896  12.520   4.200   9.972
 7495W        W14897   6.695   4.806   9.864
 7496W        W14898   4.044   5.357   1.716
 7497W        W14899   9.636   4.785   8.201
 7498W        W14900  13.945   4.219   8.936
 7499W        W14901  18.788   6.661   0.863
 7500W        W14902   9.962   5.144   9.829
 7501W        W14903   9.222   6.445   9.876
 7502W        W14904  15.499   7.812   1.421
 7503W        W14905   3.191   4.395   9.381
 7504W        W14906   0.541   3.543   8.732
 7505W        W14907  18.495   8.526   8.331
 7506W        W14908  18.965   7.521   0.814
 7507W        W14909   5.662   6.360   9.554
 7508W        W14910  15.649   6.888   7.914
 7509W        W14911   8.901   7.400   9.714
 7510W        W14912   7.153   7.968   9.010
 7511W        W14913  17.428   9.655   0.161
 7512W        W14914   9.611   8.048   1.270
 7513W        W14915   3.594   9.424   1.725
 7514W        W14916  19.208   4.248   9.502
 7515W        W14917   7.693   5.730   8.325
 7516W        W14918  15.224   2.129   1.877
 7517W        W14919  17.391   5.391   1.046
 7518W        W14920   8.122   7.919   0.033
 7519W        W14921   1.769   5.214   7.844
 7520W        W14922   8.319   5.317   0.284
 7521W        W14923  11.148   7.810   8.957
 7522W        W14924   8.323   0.803   8.452
 7523W        W14925  11.064   3.385   2.176
 7524W        W14926   9.911   3.735   1.677
 7525W        W14927  10.157   8.582   2.467
 7526W        W14928   9.631   0.608   2.012
 7527W        W14929   7.889   6.107   9.065
 7528W        W14930   8.670   9.257   9.764
 7529W        W14931   5.435   8.643   9.292
 7530W        W14932  17.247   8.728   1.585
 7531W        W14933  15.968   6.057   0.531
 7532W        W14934  15.939   1.310   9.920
 7533W        W14935  16.871   7.593   0.067
 7534W        W14936   5.283   2.651   9.864
 7535W        W14937  10.884   8.776   9.201
 7536W        W14938  15.955   6.543   0.387
 7537W        W14939  12.861   5.208   7.927
 7538W        W14940  17.196   6.877   9.816
 7539W        W14941   9.450   0.121   7.991
 7540W        W14942   5.582   3.047   8.290
 7541W        W14943  18.483   5.059   8.830
 7542W        W14944  16.311   5.326   7.749
 7543W        W14945   1.852   5.566   2.168
 7544W        W14946  14.530   2.240   9.092
 7545W        W14947   9.101   9.827   0.355
 7546W        W14948   3.079   8.364   9.528
 7547W        W14949  18.476   7.327   1.376
 7548W        W14950   8.339   8.062   1.757
 7549W        W14951  16.412   2.505   8.229
 7550W        W14952  15.693   2.319   1.756
 7551W        W14953   5.541   5.651   8.441
 7552W        W14954  17.121   3.466   0.337
 7553W        W14955   5.730   4.111   0.644
 7554W        W14956  15.861   8.499   9.858
 7555W        W14957   2.421   0.992   8.774
 7556W        W14958  10.163   5.549   8.872
 7557W        W14959   4.650   8.716   8.311
 7558W        W14960   6.333   8.112   8.236
 7559W        W14961  17.500   7.301   9.794
 7560W        W14962   6.106   1.387   1.086
 7561W        W14963   2.308   5.363   8.728
 7562W        W14964  14.765   5.407   8.887
 7563W        W14965   5.381   4.710   9.110
 7564W        W14966  14.001   5.449   9.696
 7565W        W14967  13.721   6.291   8.060
 7566W        W14968  15.420   3.475   1.443
 7567W        W14969   8.062   8.763   9.530
 7568W        W14970  11.310   5.554   9.639
 7569W        W14971   4.610   0.030   0.861
 7570W        W14972  17.506   7.508   1.458
 7571W        W14973   4.517   4.706   0.872
 7572W        W14974  17.743   8.902   7.958
 7573W        W14975   5.971   8.044   0.676
 7574W        W14976  10.822   6.760   8.501
 7575W        W14977  17.063   4.600   9.031
 7576W        W14978  12.420   1.612   9.362
 7577W        W14979  19.350   4.965   2.307
 7578W        W14980  19.797   1.857   9.894
 7579W        W14981   8.162   3.211   9.370
 7580W        W14982   6.831   7.702   2.424
 7581W        W14983   9.283   1.640   0.910
 7582W        W14984   9.074   1.168   0.374
 7583W        W14985  19.097   2.797   9.007
 7584W        W14986   3.623   5.593   1.500
 7585W        W14987  12.966   9.187   1.386
 7586W        W14988   7.592   1.961   0.046
 7587W        W14989   2.584   7.067   8.260
 7588W        W14990   4.058   0.635   2.283
 7589W        W14991  18.727   4.486   0.303
 7590W        W14992   1.355   0.271   0.740
 7591W        W14993  18.057   4.953   9.101
 7592W        W14994   4.991   2.143   9.904
 7593W        W14995   1.082   4.664   8.186
 7594W        W14996   0.686   6.232   7.620
 7595W        W14997  12.350   9.390   7.587
 7596W        W14998   9.603   1.666   9.959
 7597W        W14999  19.175   0.699   8.185
 7598W        W15000   0.197   7.538   9.233
 7599W        W15001   1.038   8.476   8.752
 7600W        W15002   2.090   4.879   8.093
 7601W        W15003   7.140   2.184   8.378
 7602W        W15004  17.413   0.426   2.071
 7603W        W15005   9.208   6.592   8.980
 7604W        W15006  19.292   6.578   0.817
 7605W        W15007  11.856   6.422   0.553
 7606W        W15008   7.089   6.079   8.932
 7607W        W15009  10.215   4.667   0.857
 7608W        W15010  12.747   2.553   8.985
 7609W        W15011   9.431   3.629   1.356
 7610W        W15012  16.474   0.762   1.187
 7611W        W15013  12.831   7.859   1.580
 7612W        W15014  12.709   7.300   8.499
 7613W        W15015   1.467   9.198   9.097
 7614W        W15016   4.883   8.656   1.424
 7615W        W15017   1.549   0.621   8.908
 7616W        W15018   7.030   5.766   0.782
 7617W        W15019  11.855   6.924   9.337
 7618W        W15020  11.133   8.211   0.725
 7619W        W15021   5.742   1.223   0.758
 7620W        W15022   6.106   3.716   0.058
 7621W        W15023  16.744   9.799   2.189
 7622W        W15024  19.691   6.750   8.389
 7623W        W15025  17.122   1.354   0.397
 7624W        W15026  14.300   9.260   9.522
 7625W        W15027   1.215   0.928   9.965
 7626W        W15028   6.676   0.712   0.845
 7627W        W15029   1.730   8.961   0.207
 7628W        W15030   7.906   6.872   7.460
 7629W        W15031   3.185   5.491   8.674
 7630W        W15032   9.822   7.401   8.821
 7631W        W15033  15.665   2.308   1.240
 7632W        W15034   6.681   1.810   9.057
 7633W        W15035   3.406   0.356   0.321
 7634W        W15036   6.723   0.251   0.080
 7635W        W15037  13.732   0.629   1.418
 7636W        W15038  16.892   8.811   8.752
 7637W        W15039  14.455   9.691   9.797
 7638W        W15040   3.430   6.724   7.658
 7639W        W15041  10.608   7.504   2.329
 7640W        W15042   0.627   2.788   1.564
 7641W        W15043   0.646   6.640   2.084
 7642W        W15044  10.203   0.566   0.361
 7643W        W15045  18.953   2.135   2.600
 7644W        W15046  15.454   0.604   9.321
 7645W        W15047   0.822   9.343   9.831
 7646W        W15048   3.607   2.768   9.772
 7647W        W15049   5.620   1.827   7.795
 7648W        W15050  14.775   7.896   9.868
 7649W        W15051   6.674   4.898   0.880
 7650W        W15052   5.752   5.006   1.197
 7651W        W15053  18.820   6.322   9.684
 7652W        W15054   8.728   6.028   9.389
 7653W        W15055  11.063   0.756   1.346
 7654W        W15056  11.563   4.169   0.745
 7655W        W15057   9.050   6.579   0.356
 7656W        W15058   9.812   9.616   1.703
 7657W        W15059   2.146   9.899   2.104
 7658W        W15060   9.530   8.452   0.985
 7659W        W15061   4.200   9.203   9.873
 7660W        W15062   3.424   6.449   1.112
 7661W        W15063  10.441   4.682   0.364
 7662W        W15064   1.115   1.888   0.203
 7663W        W15065  17.379   6.962   9.352
 7664W        W15066   1.435   7.320   7.870
 7665W        W15067   7.890   6.172   0.219
 7666W        W15068   1.060   9.763   2.355
 7667W        W15069  15.505   9.010   1.024
 7668W        W15070   7.622   8.456   0.650
 7669W        W15071   9.996   2.476   0.464
 7670W        W15072  16.352   8.652   9.979
 7671W        W15073  12.296   5.825   8.513
 7672W        W15074   7.579   7.787   9.287
 7673W        W15075  19.199   6.550   9.924
 7674W        W15076   2.464   1.070   1.746
 7675W        W15077   3.109   7.012   1.876
 7676W        W15078  14.450   0.182   9.945
 7677W        W15079  12.519   4.269   7.867
 7678W        W15080  11.413   9.445   1.100
 7679W        W15081  15.755   2.421   0.757
 7680W        W15082  15.665   3.903   1.556
 7681W        W15083   1.095   7.484   9.332
 7682W        W15084  19.155   1.541   8.263
 7683W        W15085   0.628   2.447   9.612
 7684W        W15086   0.068   6.566   9.665
 7685W        W15087  11.305   7.352   1.027
 7686W        W15088  10.166   2.181   9.586
 7687W        W15089   2.079   1.694   9.911
 7688W        W15090   2.488   4.064   2.049
 7689W        W15091   4.908   6.873   7.546
 7690W        W15092  16.291   6.068   0.124
 7691W        W15093  19.986   3.205   1.168
 7692W        W15094   8.655   0.617   8.077
 7693W        W15095  16.804   3.196   9.253
 7694W        W15096   9.508   1.168   0.083
 7695W        W15097   4.391   2.186   2.208
 7696W        W15098  10.842   3.288   8.654
 7697W        W15099  19.210   4.408   0.982
 7698W        W15100   9.218   0.610   0.760
 7699W        W15101  15.423   9.696   9.409
 7700W        W15102  17.963   2.281   0.964
 7701W        W15103   2.351   2.167   9.865
 7702W        W15104   6.271   1.833   1.830
 7703W        W15105   1.010   2.645   8.747
 7704W        W15106   8.598   3.611   1.294
 7705W        W15107   0.131   7.878   1.911
 7706W        W15108   0.351   8.692   1.261
 7707W        W15109  14.309   0.904   8.618
 7708W        W15110  19.796   5.224   9.757
 7709W        W15111   3.823   4.244   1.881
 7710W        W15112   5.338   6.525   9.929
 7711W        W15113   2.941   6.081   9.771
 7712W        W15114   9.800   7.572   0.108
 7713W        W15115   6.514   7.421   1.359
 7714W        W15116   5.151   5.955   9.051
 7715W        W15117   1.330   7.272   2.022
 7716W        W15118  11.916   0.900   8.773
 7717W        W15119   4.619   0.407   9.698
 7718W        W15120   5.318   5.211   1.008
 7719W        W15121   1.634   6.423   8.283
 7720W        W15122   6.932   3.794   8.922
 7721W        W15123  15.967   0.732   1.138
 7722W        W15124  15.988   0.216   9.722
 7723W        W15125  18.076   5.104   0.064
 7724W        W15126   9.380   8.848   8.151
 7725W        W15127   0.443   3.997   0.215
 7726W        W15128   7.056   9.862   9.946
 7727W        W15129   2.684   5.788   2.408
 7728W        W15130  18.975   5.966   9.338
 7729W        W15131   7.596   5.657   1.626
 7730W        W15132   5.615   4.923   9.536
 7731W        W15133  12.592   2.055   8.065
 7732W        W15134  19.559   2.999   8.805
 7733W        W15135   3.169   0.440   9.874
 7734W        W15136  17.816   8.579   2.376
 7735W        W15137   4.371   4.907   8.398
 7736W        W15138   1.583   3.351   9.768
 7737W        W15139  14.608   4.978   0.919
 7738W        W15140  11.386   3.580   7.647
 7739W        W15141   7.454   2.905   8.919
 7740W        W15142  17.583   5.498   7.408
 7741W        W15143  12.225   6.382   8.301
 7742W        W15144  18.651   6.991   1.724
 7743W        W15145   7.914   6.562   9.843
 7744W        W15146   4.856   4.217   8.844
 7745W        W15147   7.556   4.393   7.704
 7746W        W15148  12.251   0.113   8.479
 7747W        W15149   6.721   0.681   8.293
 7748W        W15150  17.839   3.553   9.198
 7749W        W15151   2.871   4.971   9.458
 7750W        W15152  11.797   5.663   8.684
 7751W        W15153  10.406   2.972   7.535
 7752W        W15154  15.793   6.914   0.680
 7753W        W15155  14.928   9.696   2.462
 7754W        W15156   7.197   8.835   8.008
 7755W        W15157  11.024   0.758   1.877
 7756W        W15158   3.979   0.225   1.187
 7757W        W15159  14.779   9.195   9.318
 7758W        W15160  13.531   0.088   0.081
 7759W        W15161   4.455   5.441   2.449
 7760W        W15162   2.746   4.191   2.484
 7761W        W15163  17.948   0.110   7.659
 7762W        W15164   3.157   1.790   9.773
 7763W        W15165   2.682   3.674   2.281
 7764W        W15166  10.278   7.045   9.295
 7765W        W15167  19.484   4.153   1.368
 7766W        W15168  15.248   2.627   2.054
 7767W        W15169   5.003   4.564   2.041
 7768W        W15170  15.403   7.344   2.368
 7769W        W15171  14.159   8.929   0.346
 7770W        W15172  13.810   5.006   0.456
 7771W        W15173  15.158   6.673   0.006
 7772W        W15174  13.404   2.338   2.088
 7773W        W15175   9.133   1.158   1.850
 7774W        W15176   0.061   1.421   1.218
 7775W        W15177  10.337   7.850   0.631
 7776W        W15178   1.333   4.019   8.940
 7777W        W15179   8.924   9.112   8.109
 7778W        W15180   4.422   9.219   1.215
 7779W        W15181   7.943   5.690   9.383
 7780W        W15182   6.193   1.748   8.815
 7781W        W15183   1.218   9.525   1.917
 7782W        W15184  12.061   5.120   9.792
 7783W        W15185   0.204   0.668   8.685
 7784W        W15186   3.173   0.765   0.541
 7785W        W15187  17.398   7.493   8.449
 7786W        W15188   6.573   6.689   9.221
 7787W        W15189  14.977   9.105   0.583
 7788W        W15190  10.823   0.267   0.048
 7789W        W15191  13.488   0.590   8.653
 7790W        W15192  13.177   8.504   9.473
 7791W        W15193  11.400   8.199   9.850
 7792W        W15194  17.831   0.131   2.096
 7793W        W15195   7.310   4.517   9.340
 7794W        W15196  18.260   2.494   8.633
 7795W        W15197  13.612   0.339   0.532
 7796W        W15198   1.189   7.787   2.030
 7797W        W15199  13.085   3.048   0.737
 7798W        W15200  15.454   1.125   8.007
 7799W        W15201   2.312   5.326   8.214
 7800W        W15202  11.970   7.292   8.049
 7801W        W15203  17.102   0.431   0.740
 7802W        W15204  15.354   4.478   0.779
 7803W        W15205  14.322   7.085   2.396
 7804W        W15206  19.690   2.626   0.638
 7805W        W15207  17.744   9.660   9.534
 7806W        W15208   7.872   8.642   2.421
 7807W        W15209  18.002   5.920   8.438
 7808W        W15210  15.744   4.777   1.667
 7809W        W15211   5.298   4.112   9.838
 7810W        W15212  18.169   7.379   9.723
 7811W        W15213  16.030   7.814   0.700
 7812W        W15214   8.844   7.079   0.435
 7813W        W15215   6.645   3.830   0.891
 7814W        W15216  12.000   4.948   8.436
 7815W        W15217  12.301   9.844   9.406
 7816W        W15218  14.422   4.910   9.978
 7817W        W15219  16.377   7.458   9.955
 7818W        W15220  16.770   6.510   8.075
 7819W        W15221   8.202   1.410   0.419
 7820W        W15222  10.985   1.738   7.974
 7821W        W15223  11.869   7.299   1.038
 7822W        W15224   5.670   6.139   0.022
 7823W        W15225   1.455   6.105   0.681
 7824W        W15226   8.013   7.893   8.998
 7825W        W15227   2.153   7.538   8.964
 7826W        W15228  16.908   5.197   0.987
 7827W        W15229   4.712   7.253   1.674
 7828W        W15230   3.323   5.218   2.267
 7829W        W15231  12.165   9.089   1.540
 7830W        W15232   9.072   7.201   1.148
 7831W        W15233   9.974   5.861   1.405
 7832W        W15234   1.147   3.439   1.165
 7833W        W15235  10.650   9.762   0.050
 7834W        W15236   1.148   3.267   7.993
 7835W        W15237   6.639   6.937   8.788
 7836W        W15238  10.273   9.557   2.165
 7837W        W15239   9.468   2.737   9.891
 7838W        W15240  12.417   0.850   0.528
 7839W        W15241   5.703   9.088   1.765
 7840W        W15242  13.115   3.618   0.996
 7841W        W15243  19.498   9.617   9.236
 7842W        W15244  11.690   9.084   9.340
 7843W        W15245   5.071   1.159   1.043
 7844W        W15246   1.527   7.385   1.108
 7845W        W15247   4.555   8.869   9.280
 7846W        W15248   2.657   8.661   0.263
 7847W        W15249  17.182   0.470   0.167
 7848W        W15250   2.462   9.662   0.539
 7849W        W15251  19.420   9.471   7.782
 7850W        W15252   6.594   0.700   0.322
 7851W        W15253   1.697   3.693   0.192
 7852W        W15254   3.665   9.066   0.734
 7853W        W15255  11.121   6.927   7.885
 7854W        W15256   9.718   0.231   2.366
 7855W        W15257   6.255   3.285   0.335
 7856W        W15258  12.412   9.081   9.868
 7857W        W15259  10.734   2.626   0.077
 7858W        W15260   1.374   1.534   0.499
 7859W        W15261  16.294   7.042   2.468
 7860W        W15262  17.785   1.676   2.199
 7861W        W15263  14.688   8.304   8.002
 7862W        W15264   0.769   3.878   7.784
 7863W        W15265  13.929   4.824   8.917
 7864W        W15266  17.074   6.657   0.269
 7865W        W15267  15.798   4.207   8.597
 7866W        W15268   4.064   3.478   2.542
 7867W        W15269   9.423   1.229   1.164
 7868W        W15270  11.333   7.282   9.758
 7869W        W15271   6.023   3.688   0.557
 7870W        W15272  19.220   4.441   0.124
 7871W        W15273  10.938   7.947   8.525
 7872W        W15274   6.225   5.945   2.136
 7873W        W15275  16.448   6.105   9.216
 7874W        W15276  10.557   7.436   1.846
 7875W        W15277  12.662   1.323   1.021
 7876W        W15278  19.463   9.403   8.289
 7877W        W15279  16.430   7.492   2.284
 7878W        W15280   3.732   5.140   9.814
 7879W        W15281  11.586   6.013   0.707
 7880W        W15282   1.570   6.317   1.131
 7881W        W15283   9.882   0.980   0.391
 7882W        W15284   1.420   0.455   9.371
 7883W        W15285   1.901   3.095   7.643
 7884W        W15286   6.689   7.394   9.016
 7885W        W15287  19.437   2.001   1.216
 7886W        W15288  12.274   0.400   0.276
 7887W        W15289   4.117   0.346   8.933
 7888W        W15290  17.296   3.715   0.783
 7889W        W15291  15.196   7.586   0.483
 7890W        W15292   5.599   1.303   8.433
 7891W        W15293  16.196   2.378   1.233
 7892W        W15294  15.939   5.405   9.361
 7893W        W15295   5.106   3.668   0.098
 7894W        W15296  13.948   1.472   1.009
 7895W        W15297  10.840   6.172   1.320
 7896W        W15298   4.577   9.599   1.552
 7897W        W15299   6.149   4.648   2.469
 7898W        W15300  19.392   1.597   1.907
 7899W        W15301  16.462   5.580   9.328
 7900W        W15302  10.350   5.904   8.278
 7901W        W15303   5.171   9.678   0.198
 7902W        W15304   7.117   1.426   8.250
 7903W        W15305  16.455   5.004   1.140
 7904W        W15306   5.267   3.470   8.261
 7905W        W15307  11.818   6.850   0.801
 7906W        W15308   6.484   6.645   1.601
 7907W        W15309   3.578   2.658   1.837
 7908W        W15310   9.725   6.271   1.195
 7909W        W15311  10.336   8.206   9.806
 7910W        W15312   3.353   9.823   8.508
 7911W        W15313   8.791   8.970   7.637
 7912W        W15314   2.687   2.655   8.393
 7913W        W15315   6.550   1.479   7.927
 7914W        W15316   3.605   5.728   7.351
 7915W        W15317  15.804   1.981   9.048
 7916W        W15318  17.422   5.662   1.516
 7917W        W15319   6.982   9.752   9.017
 7918W        W15320  11.380   7.365   8.894
 7919W        W15321  11.597   1.531   9.702
 7920W        W15322  13.201   8.361   0.823
 7921W        W15323  14.084   1.965   1.663
 7922W        W15324   1.874   3.730   8.509
 7923W        W15325   1.167   8.753   9.168
 7924W        W15326   1.543   8.683   2.101
 7925W        W15327  13.390   1.442   1.089
 7926W        W15328   3.098   0.443   1.228
 7927W        W15329   8.565   4.071   1.523
 7928W        W15330  12.872   8.823   7.738
 7929W        W15331   3.197   7.880   0.667
 7930W        W15332   1.539   3.436   1.793
 7931W        W15333  15.360   8.950   2.321
 7932W        W15334  14.401   4.320   1.788
 7933W        W15335   8.126   7.405   0.768
 7934W        W15336   0.295   9.479   9.536
 7935W        W15337   2.260   7.913   1.109
 7936W        W15338   8.504   3.558   0.315
 7937W        W15339  17.452   4.148   0.987
 7938W        W15340  16.755   2.531   0.487
 7939W        W15341  17.383   4.249   9.638
 7940W        W15342  10.384   8.032   8.480
 7941W        W15343   5.521   6.509   1.220
 7942W        W15344  16.653   1.646   9.685
 7943W        W15345   9.973   7.417   1.456
 7944W        W15346  14.581   2.732   8.294
 7945W        W15347   4.129   2.632   8.066
 7946W        W15348   1.983   5.645   1.651
 7947W        W15349  16.296   6.846   0.681
 7948W        W15350  11.339   7.523   0.198
 7949W        W15351   1.086   2.272   8.403
 7950W        W15352   3.784   9.735   1.322
 7951W        W15353  18.340   1.033   9.755
 7952W        W15354  19.722   0.179   1.609
 7953W        W15355   0.951   5.154   9.042
 7954W        W15356   4.184   0.277   0.706
 7955W        W15357   2.519   2.593   1.112
 7956W        W15358   2.683   3.027   8.033
 7957W        W15359   7.875   6.773   1.757
 7958W        W15360   9.742   0.566   0.642
 7959W        W15361  19.112   2.286   8.347
 7960W        W15362  14.192   0.550   1.656
 7961W        W15363  19.875   1.052   9.704
 7962W        W15364  10.803   6.953   0.230
 7963W        W15365  19.928   5.896   7.938
 7964W        W15366   3.621   1.816   8.852
 7965W        W15367  15.652   8.407   8.018
 7966W        W15368  17.294   0.762   8.429
 7967W        W15369   0.296   2.904   2.349
 7968W        W15370   7.492   6.361   8.552
 7969W        W15371   6.581   4.306   9.565
 7970W        W15372   0.998   0.183   7.731
 7971W        W15373   4.427   5.224   0.784
 7972W        W15374  17.362   3.384   9.385
 7973W        W15375   1.621   4.477   8.909
 7974W        W15376  11.559   3.408   8.095
 7975W        W15377   9.212   4.758   8.533
 7976W        W15378   7.066   4.625   8.259
 7977W        W15379  18.629   9.222   8.925
 7978W        W15380  13.527   1.504   2.341
 7979W        W15381   9.412   7.544   0.430
 7980W        W15382   7.371   7.160   0.980
 7981W        W15383  10.487   5.457   0.977
 7982W        W15384   1.721   2.914   0.554
 7983W        W15385  19.151   5.739   0.607
 7984W        W15386  13.084   9.147   8.246
 7985W        W15387  10.168   4.070   1.973
 7986W        W15388  10.877   9.369   0.303
 7987W        W15389   9.146   0.650   1.819
 7988W        W15390  10.691   6.417   2.158
 7989W        W15391   7.928   6.411   0.961
 7990W        W15392  12.103   6.454   1.019
 7991W        W15393   2.523   8.096   1.932
 7992W        W15394   8.821   7.411   8.699
 7993W        W15395   8.826   5.064   8.727
 7994W        W15396  19.777   6.331   8.119
 7995W        W15397  17.692   2.947   9.344
 7996W        W15398   5.308   9.395   1.092
 7997W        W15399   7.847   4.376   8.147
 7998W        W15400   2.334   4.249   9.636
 7999W        W15401   8.702   3.161   8.525
 8000W        W15402  19.630   4.353   1.837
 8001W        W15403  11.348   2.665   7.757
 8002W        W15404  13.142   0.222   2.246
 8003W        W15405  18.989   5.777   2.000
 8004W        W15406   0.214   6.966   2.024
 8005W        W15407   5.313   0.021   7.872
 8006W        W15408   6.592   3.472   7.832
 8007W        W15409  15.945   5.871   1.544
 8008W        W15410   3.673   5.024   1.864
 8009W        W15411   1.729   4.629   2.461
 8010W        W15412   2.473   9.769   1.097
 8011W        W15413  17.585   5.169   9.858
 8012W        W15414  18.421   7.193   2.319
 8013W        W15415   8.335   1.815   8.564
 8014W        W15416   5.779   3.418   8.930
 8015W        W15417   1.194   8.845   1.360
 8016W        W15418  19.602   3.419   9.438
 8017W        W15419   4.143   8.836   1.926
 8018W        W15420   7.569   7.759   8.763
 8019W        W15421  14.758   5.381   8.379
 8020W        W15422  14.804   8.057   1.869
 8021W        W15423  10.770   6.757   2.531
 8022W        W15424  12.048   3.136   8.770
 8023W        W15425   8.872   2.080   1.721
 8024W        W15426   1.201   7.233   8.885
 8025W        W15427  15.000   6.899   2.402
 8026W        W15428  15.755   5.577   8.381
 8027W        W15429  16.745   7.076   9.963
 8028W        W15430  14.410   7.086   1.858
 8029W        W15431   1.530   0.035   2.373
 8030W        W15432  16.110   7.006   0.218
 8031W        W15433  11.667   3.332   0.409
 8032W        W15434   0.115   0.292   9.179
 8033W        W15435   3.747   5.116   1.354
 8034W        W15436   7.638   9.522   1.645
 8035W        W15437   9.964   1.462   7.770
 8036W        W15438  10.371   4.490   1.750
 8037W        W15439  18.983   2.300   0.668
 8038W        W15440   2.757   4.110   9.335
 8039W        W15441   9.174   8.940   1.311
 8040W        W15442   2.400   1.817   8.255
 8041W        W15443  19.349   2.442   0.985
 8042W        W15444  10.996   7.181   2.338
 8043W        W15445   9.767   7.319   9.669
 8044W        W15446   3.458   6.032   0.821
 8045W        W15447  15.673   9.019   1.511
 8046W        W15448   7.483   5.389   8.666
 8047W        W15449   6.309   7.490   9.987
 8048W        W15450   6.543   1.400   8.779
 8049W        W15451   1.771   5.771   0.418
 8050W        W15452   6.234   7.299   7.614
 8051W        W15453  14.089   7.090   8.227
 8052W        W15454  18.165   8.739   2.036
 8053W        W15455  15.454   0.806   2.049
 8054W        W15456   6.007   4.288   8.881
 8055W        W15457  13.079   3.554   0.263
 8056W        W15458   3.995   7.364   0.355
 8057W        W15459   3.478   1.027   1.824
 8058W        W15460  18.666   9.197   1.381
 8059W        W15461  13.431   4.235   0.955
 8060W        W15462   7.973   6.076   8.567
 8061W        W15463   0.396   6.368   0.821
 8062W        W15464   6.092   8.307   1.131
 8063W        W15465   3.518   2.359   0.663
 8064W        W15466   3.069   9.754   9.354
 8065W        W15467   9.524   7.788   9.731
 8066W        W15468   7.726   0.773   1.525
 8067W        W15469   6.675   6.874   2.054
 8068W        W15470  13.496   3.249   8.084
 8069W        W15471  14.642   8.006   1.363
 8070W        W15472   9.565   3.013   8.134
 8071W        W15473   5.345   9.888   1.674
 8072W        W15474  12.923   3.013   9.208
 8073W        W15475  11.698   0.260   8.116
 8074W        W15476   0.319   7.094   9.524
 8075W        W15477  18.976   8.801   1.446
 8076W        W15478  18.807   4.657   8.302
 8077W        W15479  18.730   4.003   9.610
 8078W        W15480   7.983   1.082   0.762
 8079W        W15481   7.465   9.999   1.658
 8080W        W15482   0.283   3.792   0.682
 8081W        W15483  11.902   9.554   9.270
 8082W        W15484  10.971   9.654   7.687
 8083W        W15485   2.654   0.602   1.829
 8084W        W15486  11.789   0.277   0.023
 8085W        W15487   9.002   3.475   1.579
 8086W        W15488   5.099   3.519   7.743
 8087W        W15489   4.122   8.749   9.061
 8088W        W15490   4.439   5.187   1.987
 8089W        W15491  15.486   9.005   8.296
 8090W        W15492   6.014   1.306   7.939
 8091W        W15493   0.328   0.141   8.751
 8092W        W15494  11.936   7.847   9.421
 8093W        W15495   2.106   3.836   9.383
 8094W        W15496  18.241   2.469   8.125
 8095W        W15497  12.027   5.598   9.178
 8096W        W15498   5.797   1.839   2.371
 8097W        W15499   5.733   8.001   0.218
 8098W        W15500  13.803   9.792   9.365
 8099W        W15501   6.902   0.318   0.551
 8100W        W15502   8.698   2.699   0.845
 8101W        W15503  14.232   4.961   8.481
 8102W        W15504  14.979   7.945   7.508
 8103W        W15505   6.967   9.848   0.804
 8104W        W15506   5.480   7.463   1.203
 8105W        W15507  10.670   3.580   0.365
 8106W        W15508  11.506   0.217   2.349
 8107W        W15509  15.631   9.477   1.256
 8108W        W15510   0.119   6.047   1.779
 8109W        W15511  14.338   0.040   1.673
 8110W        W15512   1.322   1.369   9.507
 8111W        W15513   4.225   1.363   1.678
 8112W        W15514  19.801   0.358   7.515
 8113W        W15515  12.813   2.627   0.901
 8114W        W15516  14.637   4.479   9.775
 8115W        W15517   4.367   1.623   8.435
 8116W        W15518  18.575   1.420   0.015
 8117W        W15519  12.460   9.968   1.098
 8118W        W15520   0.957   7.535   8.506
 8119W        W15521  19.232   9.828   8.105
 8120W        W15522  12.179   0.146   7.971
 8121W        W15523  10.914   5.221   8.295
 8122W        W15524  14.345   2.613   1.749
 8123W        W15525   4.827   5.152   1.212
 8124W        W15526  11.348   6.445   0.550
 8125W        W15527  18.379   0.991   0.274
 8126W        W15528  18.125   4.809   2.163
 8127W        W15529  12.860   2.985   8.699
 8128W        W15530   8.471   1.417   2.095
 8129W        W15531  19.886   6.690   7.788
 8130W        W15532  14.228   9.395   1.659
 8131W        W15533   1.183   1.163   7.789
 8132W        W15534   3.152   3.533   0.930
 8133W        W15535  14.131   9.827   8.995
 8134W        W15536   9.404   2.200   2.144
 8135W        W15537  14.338   4.941   0.475
 8136W        W15538  14.864   1.490   0.065
 8137W        W15539  10.373   5.003   1.194
 8138W        W15540   9.348   3.976   8.523
 8139W        W15541  15.265   9.229   9.149
 8140W        W15542   2.084   3.412   1.509
 8141W        W15543  15.345   6.240   1.220
 8142W        W15544   3.793   9.088   0.195
 8143W        W15545  13.880   0.261   9.187
 8144W        W15546  14.110   6.859   1.050
 8145W        W15547   7.511   6.822   8.299
 8146W        W15548   5.575   1.250   8.928
 8147W        W15549  18.859   0.601   0.301
 8148W        W15550   5.481   0.080   8.372
 8149W        W15551  16.070   9.831   8.297
 8150W        W15552  12.109   4.362   9.100
 8151W        W15553   5.516   6.086   8.741
 8152W        W15554   6.641   9.479   8.735
 8153W        W15555   2.759   7.558   8.310
 8154W        W15556  12.115   1.002   8.221
 8155W        W15557  11.897   5.261   1.821
 8156W        W15558   1.435   1.147   9.032
 8157W        W15559   7.171   6.834   2.164
 8158W        W15560   7.199   8.962   0.011
 8159W        W15561  10.491   4.367   2.245
 8160W        W15562   1.296   9.236   0.051
 8161W        W15563  11.228   9.418   1.560
 8162W        W15564  13.471   8.155   0.390
 8163W        W15565  15.933   4.993   1.198
 8164W        W15566  11.804   8.681   7.689
 8165W        W15567   8.626   4.867   0.038
 8166W        W15568   7.450   3.889   8.549
 8167W        W15569  11.308   6.011   0.257
 8168W        W15570   3.629   9.965   1.743
 8169W        W15571  18.660   7.188   9.731
 8170W        W15572  16.395   6.796   7.859
 8171W        W15573  13.478   1.919   8.624
 8172W        W15574   4.012   2.499   0.810
 8173W        W15575   7.861   1.642   8.654
 8174W        W15576  19.174   9.357   0.969
 8175W        W15577  18.680   6.179   2.034
 8176W        W15578  13.957   9.884   9.852
 8177W        W15579  17.795   5.450   8.397
 8178W        W15580  16.306   9.199   0.723
 8179W        W15581   1.866   3.204   8.518
 8180W        W15582   6.371   4.346   2.125
 8181W        W15583   9.951   0.420   7.707
 8182W        W15584  17.129   5.113   9.059
 8183W        W15585   9.416   5.994   9.708
 8184W        W15586   7.994   2.120   1.766
 8185W        W15587  16.549   4.072   2.015
 8186W        W15588   8.156   9.220   9.757
 8187W        W15589   5.989   9.829   9.854
 8188W        W15590  15.165   1.849   9.795
 8189W        W15591  17.733   6.127   1.515
 8190W        W15592  15.593   7.108   0.252
 8191W        W15593  14.524   6.437   0.490
 8192W        W15594  14.672   0.974   2.338
 8193W        W15595   8.407   6.960   7.595
 8194W        W15596  16.056   0.255   7.883
 8195W        W15597  18.339   4.623   8.580
 8196W        W15598  15.556   6.194   0.770
 8197W        W15599   7.584   2.211   1.469
 8198W        W15600   8.813   6.937   9.482
 8199W        W15601   5.408   2.042   0.707
 8200W        W15602   7.700   1.313   2.127
 8201W        W15603   3.564   7.653   2.463
 8202W        W15604  15.730   2.085   8.561
 8203W        W15605   5.399   4.577   1.690
 8204W        W15606  11.834   0.337   0.540
 8205W        W15607   7.812   0.947   7.730
 8206W        W15608  16.459   7.420   8.963
 8207W        W15609  13.006   1.336   9.563
 8208W        W15610   4.065   0.985   0.235
 8209W        W15611   8.282   1.874   9.758
 8210W        W15612  10.570   1.863   9.657
 8211W        W15613  10.462   9.686   9.249
 8212W        W15614  17.109   8.191   9.001
 8213W        W15615   7.617   8.641   8.234
 8214W        W15616   0.655   0.413   1.461
 8215W        W15617  12.133   6.918   8.871
 8216W        W15618   5.249   2.451   9.381
 8217W        W15619   2.316   0.385   0.450
 8218W        W15620  13.918   1.567   9.171
 8219W        W15621  17.275   9.135   8.818
 8220W        W15622   2.768   4.136   8.827
 8221W        W15623  17.305   6.812   0.718
 8222W        W15624  11.749   0.094   8.621
 8223W        W15625   6.675   5.555   7.629
 8224W        W15626   0.559   3.366   2.120
 8225W        W15627  16.260   9.790   2.036
 8226W        W15628  19.459   3.227   1.267
 8227W        W15629  18.686   1.474   7.950
 8228W        W15630  19.330   7.647   1.167
 8229W        W15631   7.943   4.356   1.647
 8230W        W15632   1.470   0.959   8.547
 8231W        W15633   6.784   5.295   9.975
 8232W        W15634   6.677   1.978   1.542
 8233W        W15635   6.771   5.706   1.223
 8234W        W15636   3.785   8.163   1.235
 8235W        W15637  12.648   2.338   8.495
 8236W        W15638   4.046   8.311   9.816
 8237W        W15639  18.450   6.797   8.780
 8238W        W15640   8.983   2.957   1.292
 8239W        W15641   2.396   2.385   1.992
 8240W        W15642   8.049   9.277   8.291
 8241W        W15643  13.705   7.797   1.304
 8242W        W15644   8.994   3.598   8.513
 8243W        W15645  15.003   1.066   9.734
 8244W        W15646   2.304   0.666   1.455
 8245W        W15647  11.364   3.686   0.684
 8246W        W15648   9.339   9.377   0.488
 8247W        W15649   1.547   6.879   8.098
 8248W        W15650   8.396   7.282   8.470
 8249W        W15651  11.217   2.523   1.126
 8250W        W15652   1.751   0.857   9.348
 8251W        W15653  18.296   8.616   0.427
 8252W        W15654   0.172   1.399   8.819
 8253W        W15655   7.420   3.207   9.748
 8254W        W15656  15.960   3.472   9.953
 8255W        W15657   1.355   2.427   2.070
 8256W        W15658   3.006   7.116   8.563
 8257W        W15659   9.824   3.841   1.122
 8258W        W15660   2.862   3.448   9.389
 8259W        W15661   0.114   2.859   8.395
 8260W        W15662   4.559   5.407   9.458
 8261W        W15663  12.304   0.393   0.803
 8262W        W15664  19.754   7.967   7.553
 8263W        W15665  14.853   2.491   1.727
 8264W        W15666   3.784   8.618   1.011
 8265W        W15667  13.961   7.579   8.902
 8266W        W15668  19.336   1.103   8.454
 8267W        W15669   4.572   0.328   8.273
 8268W        W15670   4.775   5.973   0.279
 8269W        W15671  18.230   1.651   8.695
 8270W        W15672   9.797   0.532   1.521
 8271W        W15673  14.337   7.738   1.054
 8272W        W15674  14.877   4.922   9.109
 8273W        W15675  16.033   1.525   1.702
 8274W        W15676   0.357   6.683   8.689
 8275W        W15677  12.820   1.739   1.824
 8276W        W15678   6.174   1.408   0.541
 8277W        W15679  10.310   7.061   0.153
 8278W        W15680  19.458   2.261   9.868
 8279W        W15681  16.323   6.955   9.191
 8280W        W15682   4.832   3.919   9.744
 8281W        W15683  14.422   6.675   8.288
 8282W        W15684   6.112   6.292   9.795
 8283W        W15685  13.482   3.959   8.847
 8284W        W15686  10.885   2.191   9.865
 8285W        W15687  15.481   2.863   8.919
 8286W        W15688  19.540   6.810   9.627
 8287W        W15689   6.887   3.036   0.860
 8288W        W15690  14.232   7.426   0.174
 8289W        W15691  14.436   2.760   8.780
 8290W        W15692   2.785   9.707   1.561
 8291W        W15693  12.279   4.251   1.818
 8292W        W15694   4.226   1.364   8.884
 8293W        W15695   3.488   5.347   0.204
 8294W        W15696  15.770   0.085   9.260
 8295W        W15697  13.198   6.142   8.164
 8296W        W15698  16.746   3.771   8.644
 8297W        W15699  11.093   9.263   7.997
 8298W        W15700  15.999   1.997   1.520
 8299W        W15701   4.166   9.197   9.339
 8300W        W15702   9.360   0.552   9.252
 8301W        W15703   7.081   0.569   7.932
 8302W        W15704   3.086   6.834   0.981
 8303W        W15705   5.691   0.395   8.722
 8304W        W15706   6.386   8.616   8.211
 8305W        W15707  12.482   1.699   8.444
 8306W        W15708   8.695   2.687   0.062
 8307W        W15709  13.100   3.016   1.701
 8308W        W15710  16.105   4.546   8.367
 8309W        W15711  14.352   2.233   8.618
 8310W        W15712  12.971   0.225   9.057
 8311W        W15713  16.664   4.840   9.777
 8312W        W15714  15.755   1.842   2.456
 8313W        W15715  17.607   3.772   7.486
 8314W        W15716  18.160   9.764   8.778
 8315W        W15717  11.374   0.320   0.820
 8316W        W15718  14.974   8.815   9.686
 8317W        W15719   4.494   6.542   1.133
 8318W        W15720  18.055   0.590   9.676
 8319W        W15721   8.129   9.383   1.723
 8320W        W15722  13.193   7.727   9.236
 8321W        W15723   6.657   4.185   0.531
 8322W        W15724  19.929   9.876   1.971
 8323W        W15725   3.274   4.870   1.563
 8324W        W15726   0.176   2.735   9.903
 8325W        W15727  10.328   3.086   8.485
 8326W        W15728  13.808   4.260   9.429
 8327W        W15729  18.555   8.369   9.785
 8328W        W15730   2.120   4.822   1.556
 8329W        W15731  13.628   6.562   2.618
 8330W        W15732   5.504   6.305   2.129
 8331W        W15733  16.044   2.288   7.403
 8332W        W15734  10.875   1.757   9.204
 8333W        W15735  11.942   8.377   1.066
 8334W        W15736  15.110   3.664   1.088
 8335W        W15737  19.616   0.165   9.184
 8336W        W15738   4.741   5.192   8.606
 8337W        W15739   3.666   1.337   9.582
 8338W        W15740  13.083   8.155   8.068
 8339W        W15741  11.103   5.630   2.042
 8340W        W15742   9.189   6.352   1.238
 8341W        W15743  17.392   7.465   9.316
 8342W        W15744   9.400   2.149   1.619
 8343W        W15745   6.588   8.536   2.000
 8344W        W15746   7.967   4.984   1.130
 8345W        W15747  11.277   2.918   2.075
 8346W        W15748   8.813   0.731   0.437
 8347W        W15749  16.942   2.145   1.258
 8348W        W15750  11.869   9.408   0.207
 8349W        W15751  14.024   6.974   1.540
 8350W        W15752   9.753   4.778   0.662
 8351W        W15753   1.571   2.285   8.164
 8352W        W15754  17.089   8.778   1.094
 8353W        W15755  13.548   0.961   9.013
 8354W        W15756   9.881   3.597   8.780
 8355W        W15757  14.750   6.502   7.914
 8356W        W15758  15.056   5.529   1.211
 8357W        W15759  16.785   5.509   8.923
 8358W        W15760  14.740   1.988   8.402
 8359W        W15761  10.757   4.293   0.266
 8360W        W15762   6.955   0.674   9.942
 8361W        W15763   2.104   6.484   9.832
 8362W        W15764   3.661   0.542   1.935
 8363W        W15765   5.878   0.490   8.271
 8364W        W15766   5.936   0.686   9.078
 8365W        W15767   7.468   4.492   2.210
 8366W        W15768  17.997   3.663   8.718
 8367W        W15769   9.361   3.563   8.861
 8368W        W15770  16.307   8.668   9.442
 8369W        W15771   4.882   3.027   2.255
 8370W        W15772  16.660   0.817   9.762
 8371W        W15773   2.308   1.563   1.788
 8372W        W15774  13.139   6.186   1.769
 8373W        W15775  18.077   1.759   1.125
 8374W        W15776   3.250   2.462   8.100
 8375W        W15777   7.442   4.401   1.711
 8376W        W15778   7.944   7.003   9.004
 8377W        W15779   2.555   3.498   1.315
 8378W        W15780   6.268   7.706   8.986
 8379W        W15781   3.703   8.976   9.198
 8380W        W15782   6.299   2.585   9.278
 8381W        W15783  17.607   4.017   8.737
 8382W        W15784   2.073   0.747   1.917
 8383W        W15785   0.507   0.472   2.187
 8384W        W15786   5.297   8.959   1.472
 8385W        W15787  14.704   8.427   9.919
 8386W        W15788   4.390   4.229   9.973
 8387W        W15789   2.232   0.729   7.395
 8388W        W15790  15.897   1.524   8.867
 8389W        W15791  11.583   9.463   9.664
 8390W        W15792  11.542   1.016   2.537
 8391W        W15793  18.173   1.623   9.210
 8392W        W15794  11.083   9.625   0.742
 8393W        W15795   9.945   6.256   1.697
 8394W        W15796  15.404   1.529   2.645
 8395W        W15797  19.166   5.593   0.098
 8396W        W15798  17.896   2.856   8.421
 8397W        W15799  17.679   1.872   0.861
 8398W        W15800  13.798   7.685   0.327
 8399W        W15801   0.404   6.555   1.639
 8400W        W15802   1.513   5.489   1.789
 8401W        W15803   9.300   7.428   8.829
 8402W        W15804  12.934   3.204   1.257
 8403W        W15805  10.110   8.409   9.363
 8404W        W15806  19.958   4.677   0.637
 8405W        W15807  17.485   1.388   0.770
 8406W        W15808  10.652   5.586   8.017
 8407W        W15809   5.981   2.330   2.395
 8408W        W15810  12.271   0.134   9.843
 8409W        W15811   4.802   8.184   1.224
 8410W        W15812  14.498   5.415   9.792
 8411W        W15813  17.485   5.870   8.418
 8412W        W15814  14.796   0.287   8.729
 8413W        W15815   2.798   2.197   1.289
 8414W        W15816  11.382   7.140   2.035
 8415W        W15817  12.544   5.552   9.207
 8416W        W15818   6.009   0.181   2.338
 8417W        W15819  17.938   4.264   1.722
 8418W        W15820   7.188   0.914   8.305
 8419W        W15821   0.848   5.494   7.730
 8420W        W15822  19.112   4.529   1.451
 8421W        W15823  16.583   2.918   0.190
 8422W        W15824   3.044   4.902   2.010
 8423W        W15825   5.034   0.565   9.952
 8424W        W15826   7.147   8.278   1.341
 8425W        W15827  10.071   6.576   0.951
 8426W        W15828   0.814   9.312   8.431
 8427W        W15829  12.340   6.872   0.290
 8428W        W15830   8.634   1.889   1.300
 8429W        W15831   1.141   1.021   1.879
 8430W        W15832   4.849   9.467   2.006
 8431W        W15833   9.552   2.669   1.612
 8432W        W15834   0.638   5.970   9.116
 8433W        W15835   8.421   4.472   1.866
 8434W        W15836  18.559   8.842   0.030
 8435W        W15837  14.667   8.799   1.923
 8436W        W15838   1.496   9.673   1.504
 8437W        W15839  18.347   2.526   9.580
 8438W        W15840   8.905   4.608   0.424
 8439W        W15841  12.562   5.137   9.579
 8440W        W15842   8.222   3.213   0.666
 8441W        W15843  16.278   7.081   1.968
 8442W        W15844   4.568   5.555   8.964
 8443W        W15845   8.336   6.400   8.445
 8444W        W15846  10.787   5.562   9.667
 8445W        W15847   0.646   3.363   7.873
 8446W        W15848   9.415   5.260   1.989
 8447W        W15849  13.923   8.083   9.047
 8448W        W15850  11.017   4.270   9.837
 8449W        W15851  14.378   5.047   1.383
 8450W        W15852  16.997   0.103   8.661
 8451W        W15853   6.178   6.878   2.160
 8452W        W15854   1.188   0.882   9.445
 8453W        W15855  14.254   5.984   7.391
 8454W        W15856   1.426   1.852   8.414
 8455W        W15857  16.229   9.709   0.722
 8456W        W15858  13.629   6.899   1.199
 8457W        W15859  13.825   5.528   0.552
 8458W        W15860  10.873   9.090   9.883
 8459W        W15861  18.909   8.034   9.944
 8460W        W15862   9.880   8.455   8.118
 8461W        W15863   3.670   5.511   2.014
 8462W        W15864  13.408   9.488   0.614
 8463W        W15865   1.718   3.308   2.932
 8464W        W15866   1.829   1.729   1.648
 8465W        W15867  13.917   1.545   9.992
 8466W        W15868  10.280   5.174   0.245
 8467W        W15869   4.105   6.532   7.710
 8468W        W15870  14.396   8.732   8.166
 8469W        W15871   2.162   8.770   1.433
 8470W        W15872  16.020   2.089   0.464
 8471W        W15873  14.275   7.948   0.060
 8472W        W15874  14.346   7.382   1.439
 8473W        W15875  18.309   4.287   2.076
 8474W        W15876  14.948   1.554   8.575
 8475W        W15877   6.028   5.912   0.765
 8476W        W15878  10.008   0.405   1.081
 8477W        W15879   7.673   9.156   8.824
 8478W        W15880  19.920   9.958   1.199
 8479W        W15881  11.602   2.760   0.256
 8480W        W15882  16.585   0.448   7.944
 8481W        W15883  15.442   5.601   0.055
 8482W        W15884  15.139   3.703   9.841
 8483W        W15885   2.649   9.949   1.991
 8484W        W15886   7.658   3.149   8.520
 8485W        W15887   4.823   9.777   8.976
 8486W        W15888  12.345   2.563   9.300
 8487W        W15889  15.013   2.465   9.174
 8488W        W15890  14.060   1.438   1.516
 8489W        W15891  13.929   7.059   2.043
 8490W        W15892   7.633   8.685   9.270
 8491W        W15893  15.146   1.106   8.727
 8492W        W15894  14.178   9.175   7.692
 8493W        W15895   2.588   4.672   9.786
 8494W        W15896   8.427   2.224   2.056
 8495W        W15897   4.231   5.953   0.262
 8496W        W15898  17.853   5.399   8.902
 8497W        W15899   3.560   2.614   1.139
 8498W        W15900   5.798   2.267   0.966
 8499W        W15901   3.347   2.222   2.009
 8500W        W15902  16.421   0.840   9.253
 8501W        W15903   5.121   5.039   9.451
 8502W        W15904   8.383   6.003   1.814
 8503W        W15905  13.439   7.850   8.307
 8504W        W15906  15.961   7.525   0.251
 8505W        W15907   0.949   1.255   9.157
 8506W        W15908   0.797   2.478   8.010
 8507W        W15909  12.029   5.917   8.028
 8508W        W15910  10.748   0.864   7.621
 8509W        W15911  17.848   7.217   9.316
 8510W        W15912  12.442   7.521   8.119
 8511W        W15913   5.788   6.349   0.822
 8512W        W15914   3.482   6.095   9.822
 8513W        W15915   2.644   0.611   9.038
 8514W        W15916  15.473   1.437   1.696
 8515W        W15917  19.465   4.132   7.950
 8516W        W15918   6.273   8.352   7.774
 8517W        W15919   8.601   8.413   2.067
 8518W        W15920  10.131   9.798   0.216
 8519W        W15921  15.829   1.070   1.795
 8520W        W15922  19.402   4.713   9.697
 8521W        W15923  18.947   1.750   9.345
 8522W        W15924   7.079   7.049   9.047
 8523W        W15925   1.911   2.191   9.602
 8524W        W15926   9.900   5.695   8.415
 8525W        W15927  14.641   6.691   0.026
 8526W        W15928   4.067   2.701   1.852
 8527W        W15929   2.134   8.687   0.440
 8528W        W15930   5.164   1.228   2.029
 8529W        W15931   4.528   2.537   1.413
 8530W        W15932   2.323   3.089   9.865
 8531W        W15933   2.490   8.922   9.041
 8532W        W15934  15.106   0.638   0.694
 8533W        W15935  17.903   9.677   0.003
 8534W        W15936   2.061   9.609   8.356
 8535W        W15937   2.971   9.857   8.065
 8536W        W15938   4.166   6.806   8.737
 8537W        W15939  10.171   0.831   1.326
 8538W        W15940   4.449   3.546   9.247
 8539W        W15941   8.080   5.742   1.512
 8540W        W15942   9.838   9.789   8.876
 8541W        W15943   4.326   0.750   0.580
 8542W        W15944   6.422   9.451   1.099
 8543W        W15945  19.616   0.683   7.876
 8544W        W15946  15.463   9.519   1.712
 8545W        W15947   5.376   9.966   7.364
 8546W        W15948  11.908   6.568   2.128
 8547W        W15949   3.237   3.538   1.913
 8548W        W15950  19.417   2.362   2.496
 8549W        W15951  11.670   7.382   8.467
 8550W        W15952  11.274   1.916   0.318
 8551W        W15953   1.072   3.411   9.794
 8552W        W15954   0.294   3.612   1.195
 8553W        W15955   5.559   0.374   1.652
 8554W        W15956  19.047   7.766   8.642
 8555W        W15957   1.871   4.030   9.804
 8556W        W15958   0.594   6.570   7.978
 8557W        W15959   4.565   2.753   0.631
 8558W        W15960  17.265   0.929   0.681
 8559W        W15961   8.876   8.250   1.665
 8560W        W15962   9.890   5.662   9.304
 8561W        W15963  16.580   4.166   0.269
 8562W        W15964  11.091   9.707   8.209
 8563W        W15965   4.194   9.416   7.881
 8564W        W15966  11.625   5.602   1.022
 8565W        W15967   2.834   1.397   9.542
 8566W        W15968   4.524   3.962   0.757
 8567W        W15969  19.216   6.040   9.827
 8568W        W15970  19.461   9.237   1.911
 8569W        W15971  19.929   7.979   8.462
 8570W        W15972   1.016   6.225   2.053
 8571W        W15973  19.887   9.883   8.843
 8572W        W15974  17.172   4.858   0.014
 8573W        W15975  10.171   0.078   2.167
 8574W        W15976  13.076   5.636   8.101
 8575W        W15977  18.397   9.473   2.488
 8576W        W15978  16.886   5.916   1.636
 8577W        W15979   1.138   4.402   8.630
 8578W        W15980  16.628   5.689   2.054
 8579W        W15981  10.797   4.763   1.015
 8580W        W15982  13.785   8.944   9.949
 8581W        W15983   2.466   5.010   9.054
 8582W        W15984   6.067   6.788   0.865
 8583W        W15985   5.827   9.956   1.558
 8584W        W15986   8.499   4.128   9.615
 8585W        W15987   9.830   1.169   8.800
 8586W        W15988   7.411   7.827   1.246
 8587W        W15989  14.573   9.421   0.270
 8588W        W15990   3.279   9.656   1.402
 8589W        W15991   4.649   8.713   2.003
 8590W        W15992   1.035   5.843   8.515
 8591W        W15993   4.305   9.619   0.687
 8592W        W15994   5.560   9.253   2.759
 8593W        W15995  13.715   2.631   9.331
 8594W        W15996  10.606   3.087   0.740
 8595W        W15997   2.419   9.479   1.912
 8596W        W15998  14.276   3.143   8.194
 8597W        W15999   7.828   1.063   0.263
 8598W        W16000   8.604   0.147   9.704
 8599W        W16001   7.521   1.116   1.184
 8600W        W16002   5.784   1.478   7.486
 8601W        W16003  11.969   0.817   1.791
 8602W        W16004   4.598   9.538   8.151
 8603W        W16005  16.257   5.681   9.771
 8604W        W16006   6.169   3.653   1.036
 8605W        W16007  17.606   9.500   2.379
 8606W        W16008  19.435   1.018   1.602
 8607W        W16009   9.948   6.008   8.893
 8608W        W16010  10.815   2.515   1.479
 8609W        W16011  11.039   3.011   1.023
 8610W        W16012  18.989   2.213   9.635
 8611W        W16013  16.642   7.872   9.695
 8612W        W16014   1.375   8.383   1.354
 8613W        W16015   6.797   6.965   1.339
 8614W        W16016  12.410   8.609   0.525
 8615W        W16017   1.597   3.876   9.364
 8616W        W16018  18.494   3.696   0.859
 8617W        W16019  14.470   3.638   8.332
 8618W        W16020   2.563   6.503   7.996
 8619W        W16021   5.394   5.884   1.761
 8620W        W16022   7.030   5.653   2.216
 8621W        W16023  17.791   1.510   8.420
 8622W        W16024   7.472   1.215   1.684
 8623W        W16025   5.302   2.257   1.215
 8624W        W16026   0.953   6.248   0.382
 8625W        W16027   8.715   0.069   8.091
 8626W        W16028   7.252   0.308   0.149
 8627W        W16029  16.706   7.023   1.694
 8628W        W16030   1.050   5.465   9.438
 8629W        W16031  14.336   8.940   9.117
 8630W        W16032  17.074   4.647   9.545
 8631W        W16033  12.537   8.593   1.025
 8632W        W16034  14.212   6.382   0.893
 8633W        W16035  11.217   3.025   8.106
 8634W        W16036   3.766   6.541   9.782
 8635W        W16037  17.606   1.932   8.206
 8636W        W16038   4.605   0.139   1.368
 8637W        W16039  19.672   3.031   7.764
 8638W        W16040   5.589   3.578   7.877
 8639W        W16041   4.532   5.510   0.353
 8640W        W16042   8.685   5.745   2.154
 8641W        W16043   0.153   4.510   8.286
 8642W        W16044   7.962   6.934   7.964
 8643W        W16045   1.779   3.710   2.159
 8644W        W16046  17.283   7.733   8.876
 8645W        W16047  17.774   1.736   9.892
 8646W        W16048  14.652   0.552   1.434
 8647W        W16049  19.212   7.920   8.185
 8648W        W16050  10.705   3.095   0.246
 8649W        W16051  15.985   6.448   0.891
 8650W        W16052   0.190   2.197   9.691
 8651W        W16053   3.860   3.043   1.270
 8652W        W16054   9.320   8.032   8.442
 8653W        W16055  12.147   1.249   9.104
 8654W        W16056  11.542   1.496   2.309
 8655W        W16057  12.135   1.161   9.611
 8656W        W16058  15.718   2.933   0.615
 8657W        W16059   7.132   4.306   2.551
 8658W        W16060   7.747   2.115   7.824
 8659W        W16061  18.542   9.405   7.549
 8660W        W16062  11.839   6.439   9.648
 8661W        W16063   7.271   0.115   2.525
 8662W        W16064  16.690   4.908   8.875
 8663W        W16065   1.822   1.377   7.819
 8664W        W16066   4.029   6.336   9.379
 8665W        W16067   3.356   6.459   8.474
 8666W        W16068   9.350   7.351   9.958
 8667W        W16069   8.616   1.144   0.137
 8668W        W16070   7.104   4.009   0.718
 8669W        W16071   2.705   4.879   0.234
 8670W        W16072   5.053   6.420   8.878
 8671W        W16073  16.395   6.543   9.492
 8672W        W16074  13.002   4.075   7.802
 8673W        W16075  18.327   4.657   8.066
 8674W        W16076  18.381   7.802   1.557
 8675W        W16077  11.828   6.889   0.257
 8676W        W16078  19.638   7.810   1.936
 8677W        W16079   3.691   5.420   7.830
 8678W        W16080  14.314   8.876   9.857
 8679W        W16081  19.154   2.678   0.350
 8680W        W16082  10.912   0.315   0.570
 8681W        W16083   9.108   6.810   0.808
 8682W        W16084  13.823   2.493   0.784
 8683W        W16085   5.870   6.456   8.237
 8684W        W16086   2.481   5.769   1.493
 8685W        W16087  11.977   0.790   1.292
 8686W        W16088  15.422   3.250   9.253
 8687W        W16089   4.673   9.293   2.679
 8688W        W16090   3.785   9.956   8.237
 8689W        W16091  14.862   9.668   7.979
 8690W        W16092  10.613   4.373   0.748
 8691W        W16093  19.053   3.156   9.545
 8692W        W16094  16.767   1.651   1.207
 8693W        W16095  11.735   1.280   0.473
 8694W        W16096   7.371   6.420   2.387
 8695W        W16097  19.423   3.108   0.341
 8696W        W16098  12.072   6.893   1.295
 8697W        W16099   8.840   0.795   8.536
 8698W        W16100  17.021   6.912   8.432
 8699W        W16101   7.965   2.980   8.936
 8700W        W16102  12.710   0.214   9.538
 8701W        W16103   0.680   6.089   1.646
 8702W        W16104  14.158   5.322   0.181
 8703W        W16105  13.949   8.896   9.459
 8704W        W16106  12.327   6.875   0.837
 8705W        W16107  18.893   3.546   9.859
 8706W        W16108  15.035   7.465   9.734
 8707W        W16109  16.791   0.808   7.625
 8708W        W16110   0.298   3.781   9.754
 8709W        W16111  10.122   9.296   9.308
 8710W        W16112  13.691   6.469   0.932
 8711W        W16113  13.048   9.515   9.603
 8712W        W16114   6.597   3.437   8.760
 8713W        W16115   1.131   6.178   1.373
 8714W        W16116   1.235   0.444   9.836
 8715W        W16117   6.648   4.499   2.529
 8716W        W16118   5.049   6.457   8.254
 8717W        W16119   4.544   6.403   2.037
 8718W        W16120   7.391   1.772   8.553
 8719W        W16121  12.432   5.736   1.956
 8720W        W16122  10.607   9.185   7.874
 8721W        W16123  12.585   2.213   1.565
 8722W        W16124   3.705   6.014   0.276
 8723W        W16125  18.260   6.660   0.897
 8724W        W16126   7.090   9.011   0.512
 8725W        W16127  13.610   8.451   8.191
 8726W        W16128   7.496   9.455   8.397
 8727W        W16129   4.244   7.348   0.809
 8728W        W16130   4.743   2.823   7.850
 8729W        W16131   9.036   0.502   2.308
 8730W        W16132  16.566   2.380   1.950
 8731W        W16133  10.905   3.775   8.521
 8732W        W16134  11.406   2.987   0.680
 8733W        W16135  12.891   6.511   1.444
 8734W        W16136  16.983   7.412   7.706
 8735W        W16137  12.895   8.252   1.244
 8736W        W16138   5.074   3.644   1.874
 8737W        W16139  13.329   9.423   7.912
 8738W        W16140   8.156   3.481   1.520
 8739W        W16141  14.115   7.098   8.770
 8740W        W16142  17.003   1.109   8.929
 8741W        W16143  12.714   9.507   8.389
 8742W        W16144  19.923   2.287   0.119
 8743W        W16145  16.159   2.549   1.731
 8744W        W16146   6.801   7.557   0.092
 8745W        W16147   9.578   8.437   9.370
 8746W        W16148   5.373   4.754   8.457
 8747W        W16149  17.510   0.652   1.043
 8748W        W16150  14.787   1.862   1.991
 8749W        W16151   6.133   2.164   8.458
 8750W        W16152   8.153   0.479   2.239
 8751W        W16153  14.672   5.981   9.360
 8752W        W16154   2.946   5.923   8.810
 8753W        W16155   4.099   4.607   9.778
 8754W        W16156  14.910   2.283   2.248
 8755W        W16157   2.065   4.362   8.620
 8756W        W16158   6.956   9.561   2.527
 8757W        W16159   5.286   1.081   0.583
 8758W        W16160   6.461   8.094   1.708
 8759W        W16161  18.884   4.671   7.775
 8760W        W16162  10.400   1.931   9.181
 8761W        W16163  14.508   5.669   7.768
 8762W        W16164   2.999   6.338   9.325
 8763W        W16165   6.499   3.355   0.773
 8764W        W16166   8.389   4.537   0.339
 8765W        W16167   2.978   9.665   0.707
 8766W        W16168  14.849   1.230   1.395
 8767W        W16169   8.081   2.189   9.347
 8768W        W16170   8.009   4.951   9.781
 8769W        W16171  15.156   3.904   1.579
 8770W        W16172   4.941   0.713   2.159
 8771W        W16173   0.147   8.369   8.705
 8772W        W16174  16.543   9.052   9.697
 8773W        W16175   6.735   3.034   2.366
 8774W        W16176  14.315   2.711   1.243
 8775W        W16177  15.660   0.280   8.260
 8776W        W16178  18.920   8.695   9.599
 8777W        W16179   9.699   3.455   9.232
 8778W        W16180  17.033   9.929   0.889
 8779W        W16181  15.245  10.001   8.101
 8780W        W16182   6.444   0.719   9.832
 8781W        W16183   9.351   8.302   8.920
 8782W        W16184  17.318   7.732   8.010
 8783W        W16185   0.480   3.117   1.161
 8784W        W16186   5.607   4.253   9.243
 8785W        W16187   1.558   6.780   9.933
 8786W        W16188   9.234   3.142   8.507
 8787W        W16189  15.487   1.286   7.345
 8788W        W16190  16.341   9.817   1.538
 8789W        W16191  12.148   7.674   9.831
 8790W        W16192  18.352   8.104   7.973
 8791W        W16193   5.517   9.290   0.217
 8792W        W16194   0.712   7.566   8.984
 8793W        W16195   5.402   6.936   7.604
 8794W        W16196  16.783   1.675   0.173
 8795W        W16197   8.164   9.916   0.454
 8796W        W16198   7.545   4.956   9.943
 8797W        W16199  16.222   6.552   9.963
 8798W        W16200   2.846   4.203   9.820
 8799W        W16201   1.175   5.414   1.403
 8800W        W16202  10.346   7.776   1.509
 8801W        W16203   3.103   2.451   8.594
 8802W        W16204   1.394   6.388   1.743
 8803W        W16205  17.054   8.160   9.513
 8804W        W16206  14.788   9.357   1.038
 8805W        W16207   5.066   0.244   0.987
 8806W        W16208  17.995   1.479   0.688
 8807W        W16209   3.739   6.643   2.361
 8808W        W16210   5.611   5.249   8.080
 8809W        W16211   3.642   8.902   1.770
 8810W        W16212   8.588   3.662   9.806
 8811W        W16213   3.257   4.869   0.236
 8812W        W16214   9.934   2.943   9.832
 8813W        W16215  14.243   9.805   0.259
 8814W        W16216   0.873   9.591   8.947
 8815W        W16217   2.475   2.222   0.717
 8816W        W16218   1.975   4.547   9.909
 8817W        W16219   2.834   5.172   1.577
 8818W        W16220  13.362   7.570   1.623
 8819W        W16221   8.218   9.885   1.300
 8820W        W16222  18.061   0.197   0.590
 8821W        W16223   6.069   0.189   9.054
 8822W        W16224   8.061   8.769   9.012
 8823W        W16225   3.466   6.478   0.200
 8824W        W16226  18.864   0.337   9.321
 8825W        W16227   6.740   7.769   8.242
 8826W        W16228  12.460   7.373   0.856
 8827W        W16229  12.616   7.763   0.566
 8828W        W16230  15.295   9.445   2.183
 8829W        W16231   1.934   3.031   9.576
 8830W        W16232  16.965   0.245   2.192
 8831W        W16233   0.692   7.254   0.811
 8832W        W16234  12.848   0.989   1.829
 8833W        W16235   6.494   5.214   1.772
 8834W        W16236   7.545   7.672   7.709
 8835W        W16237  15.389   2.253   8.920
 8836W        W16238   4.447   4.396   0.470
 8837W        W16239  19.648   7.560   9.181
 8838W        W16240   6.657   1.576   0.316
 8839W        W16241  19.445   9.646   8.736
 8840W        W16242   5.727   1.765   1.068
 8841W        W16243   9.495   6.876   9.843
 8842W        W16244   6.739   9.059   7.927
 8843W        W16245  13.823   8.536   0.249
 8844W        W16246  14.909   2.336   9.952
 8845W        W16247  11.088   6.495   8.173
 8846W        W16248  14.622   4.597   1.285
 8847W        W16249  19.309   8.748   1.830
 8848W        W16250   1.647   5.603   8.149
 8849W        W16251  10.628   0.049   1.928
 8850W        W16252   9.355   2.641   1.149
 8851W        W16253   9.919   2.421   9.978
 8852W        W16254   8.744   5.418   1.208
 8853W        W16255   8.208   2.539   8.975
 8854W        W16256  14.326   0.558   9.353
 8855W        W16257   7.927   0.954   8.765
 8856W        W16258  18.162   0.566   7.859
 8857W        W16259  17.813   9.349   1.511
 8858W        W16260  12.808   9.340   0.047
 8859W        W16261   9.762   9.742   2.189
 8860W        W16262   1.957   9.731   1.225
 8861W        W16263  14.557   3.190   9.037
 8862W        W16264   8.409   7.278   8.989
 8863W        W16265  16.666   5.716   0.140
 8864W        W16266  18.479   4.960   2.493
 8865W        W16267   7.476   4.173   0.017
 8866W        W16268  15.244   3.510   1.912
 8867W        W16269  13.719   7.935   1.798
 8868W        W16270  17.975   2.108   8.793
 8869W        W16271  14.180   2.697   7.959
 8870W        W16272  10.793   4.836   8.942
 8871W        W16273   3.153   0.107   1.611
 8872W        W16274  18.000   2.512   9.175
 8873W        W16275  18.407   4.017   1.293
 8874W        W16276   2.553   9.759   9.225
 8875W        W16277   7.040   4.335   7.798
 8876W        W16278  16.604   4.147   8.984
 8877W        W16279   5.981   7.214   9.611
 8878W        W16280  10.191   4.119   0.929
 8879W        W16281   9.396   8.438   0.491
 8880W        W16282   0.300   6.134   8.237
 8881W        W16283   9.781   4.421   1.035
 8882W        W16284   0.207   4.777   8.712
 8883W        W16285  13.452   7.446   8.006
 8884W        W16286  19.729   5.323   2.156
 8885W        W16287   6.784   8.701   2.507
 8886W        W16288  19.957   7.935   9.445
 8887W        W16289   5.772   7.193   1.732
 8888W        W16290   8.587   2.245   2.545
 8889W        W16291   1.161   9.804   0.586
 8890W        W16292   5.746   4.436   9.710
 8891W        W16293   3.170   3.972   0.184
 8892W        W16294   1.229   0.177   0.255
 8893W        W16295   0.363   8.822   0.335
 8894W        W16296   4.771   6.484   7.823
 8895W        W16297  10.534   8.231   2.384
 8896W        W16298  19.701   2.554   8.584
 8897W        W16299  15.761   9.663   2.134
 8898W        W16300   5.565   8.813   8.383
 8899W        W16301  18.802   5.369   2.210
 8900W        W16302  14.042   1.950   0.346
 8901W        W16303  12.502   1.694   0.181
 8902W        W16304  11.631   2.875   1.713
 8903W        W16305   2.139   5.209   0.718
 8904W        W16306   2.437   5.266   9.483
 8905W        W16307   9.094   6.386   1.759
 8906W        W16308   0.283   3.171   1.620
 8907W        W16309   2.587   3.232   8.986
 8908W        W16310  19.574   1.505   1.425
 8909W        W16311   8.906   8.378   0.239
 8910W        W16312   6.116   1.201   1.643
 8911W        W16313   7.188   7.474   2.125
 8912W        W16314   7.070   4.109   9.651
 8913W        W16315   4.654   7.862   2.158
 8914W        W16316   8.946   2.709   8.502
 8915W        W16317   7.031   0.857   0.518
 8916W        W16318  17.874   6.560   1.758
 8917W        W16319   1.325   9.305   8.595
 8918W        W16320   2.196   0.341   9.958
 8919W        W16321  15.759   7.873   9.240
 8920W        W16322   5.577   1.256   9.813
 8921W        W16323   0.629   7.484   9.507
 8922W        W16324   0.689   8.379   9.487
 8923W        W16325   4.206   7.562   8.605
 8924W        W16326   8.523   9.097   8.439
 8925W        W16327  11.523   2.092   1.116
 8926W        W16328   0.169   8.335   9.223
 8927W        W16329  18.077   4.200   8.039
 8928W        W16330  12.507   2.376   0.534
 8929W        W16331  16.077   3.649   9.468
 8930W        W16332  18.371   1.859   7.841
 8931W        W16333   7.605   7.675   2.379
 8932W        W16334  19.066   9.225   0.491
 8933W        W16335  12.460   9.506   1.355
 8934W        W16336  15.485   9.805   8.914
 8935W        W16337  13.964   3.570   8.228
 8936W        W16338  13.809   0.962   2.288
 8937W        W16339  10.538   3.531   9.589
 8938W        W16340  11.786   7.038   1.706
 8939W        W16341  10.274   9.800   9.720
 8940W        W16342   4.361   9.311   1.949
 8941W        W16343   5.927   0.839   9.801
 8942W        W16344  11.881   4.032   8.307
 8943W        W16345   2.707   4.838   2.401
 8944W        W16346  15.965   2.822   9.236
 8945W        W16347   2.240   1.424   8.571
 8946W        W16348  17.263   4.733   1.620
 8947W        W16349   3.103   2.696   9.779
 8948W        W16350  14.573   2.265   1.113
 8949W        W16351  13.526   6.238   0.196
 8950W        W16352  19.282   9.723   0.619
 8951W        W16353  15.708   0.898   2.490
 8952W        W16354   4.241   2.222   1.716
 8953W        W16355  12.166   5.119   9.267
 8954W        W16356   1.087   5.928   7.636
 8955W        W16357   8.400   2.242   0.129
 8956W        W16358   4.261   4.275   2.166
 8957W        W16359  13.914   7.330   1.201
 8958W        W16360  18.349   5.453   2.430
 8959W        W16361  18.879   8.917   0.958
 8960W        W16362   2.895   9.955   8.879
 8961W        W16363  12.670   1.326   0.500
 8962W        W16364   5.170   3.388   0.971
 8963W        W16365   5.560   8.439   7.986
 8964W        W16366   9.068   8.837   0.380
 8965W        W16367   9.218   6.578   8.481
 8966W        W16368  13.709   7.573   9.342
 8967W        W16369   0.264   6.160   1.300
 8968W        W16370   3.551   9.672   2.171
 8969W        W16371   4.237   6.454   0.685
 8970W        W16372   2.721   5.591   0.661
 8971W        W16373   0.788   3.289   1.560
 8972W        W16374   2.660   0.692   0.647
 8973W        W16375  18.228   5.512   8.084
 8974W        W16376   6.151   5.459   0.553
 8975W        W16377   5.808   7.571   9.918
 8976W        W16378   6.832   9.015   8.776
 8977W        W16379   2.211   3.782   2.387
 8978W        W16380   7.748   2.442   0.249
 8979W        W16381  13.362   5.339   7.769
 8980W        W16382   2.325   9.587   0.039
 8981W        W16383  18.550   9.050   8.425
 8982W        W16384   3.661   7.100   7.370
 8983W        W16385   6.186   9.444   0.643
 8984W        W16386  13.928   5.278   9.189
 8985W        W16387   6.566   4.977   2.283
 8986W        W16388   5.089   1.719   7.921
 8987W        W16389   6.222   5.991   8.898
 8988W        W16390   0.576   9.405   0.815
 8989W        W16391  13.025   9.185   0.850
 8990W        W16392   8.362   9.107   9.308
 8991W        W16393  19.320   2.343   2.010
 8992W        W16394   8.801   9.721   9.957
 8993W        W16395   2.028   1.727   1.200
 8994W        W16396   0.340   0.694   1.749
 8995W        W16397  17.136   4.311   1.351
 8996W        W16398  13.512   8.091   9.392
 8997W        W16399  15.509   4.202   9.006
 8998W        W16400   2.958   4.898   1.156
 8999W        W16401   7.056   2.716   7.711
 9000W        W16402  19.588   7.102   7.760
 9001W        W16403   1.667   5.489   1.283
 9002W        W16404  12.334   4.571   8.263
 9003W        W16405  15.380   4.109   1.160
 9004W        W16406   0.965   2.290   9.146
 9005W        W16407   2.663   7.961   1.439
 9006W        W16408   5.035   6.538   2.125
 9007W        W16409  10.338   3.296   1.633
 9008W        W16410  15.778   5.227   0.346
 9009W        W16411   6.325   4.438   1.627
 9010W        W16412  19.129   7.054   0.810
 9011W        W16413   9.339   9.412   8.218
 9012W        W16414   0.887   7.916   9.642
 9013W        W16415   2.718   7.624   0.783
 9014W        W16416   8.100   7.730   2.456
 9015W        W16417   7.397   5.036   2.414
 9016W        W16418  19.080   3.058   2.586
 9017W        W16419   5.107   6.911   8.027
 9018W        W16420  13.848   9.524   7.883
 9019W        W16421  15.235   8.520   8.298
 9020W        W16422  13.992   9.799   1.972
 9021W        W16423   3.889   9.217   2.174
 9022W        W16424  16.560   1.548   1.654
 9023W        W16425   8.726   0.626   0.932
 9024W        W16426  12.551   2.659   0.068
 9025W        W16427   6.676   5.001   8.998
 9026W        W16428   1.700   7.787   7.774
 9027W        W16429  11.517   0.577   8.557
 9028W        W16430  17.657   2.357   7.509
 9029W        W16431  16.845   9.134   8.342
 9030W        W16432  13.411   7.369   1.149
 9031W        W16433   2.293   1.354   8.067
 9032W        W16434  18.994   6.015   8.421
 9033W        W16435  16.170   6.289   1.357
 9034W        W16436  11.618   7.557   1.945
 9035W        W16437  10.889   3.618   2.587
 9036W        W16438   9.986   2.290   8.636
 9037W        W16439  17.976   7.949   1.302
 9038W        W16440  11.707   3.491   8.958
 9039W        W16441   0.418   3.652   1.693
 9040W        W16442  13.167   5.779   7.614
 9041W        W16443  18.675   1.587   8.954
 9042W        W16444   1.669   7.774   8.632
 9043W        W16445  17.636   4.671   9.872
 9044W        W16446  17.697   5.888   8.885
 9045W        W16447   7.953   5.713   2.017
 9046W        W16448   3.801   9.512   0.510
 9047W        W16449  11.397   1.600   0.741
 9048W        W16450  13.466   7.407   8.905
 9049W        W16451  16.390   4.412   9.857
 9050W        W16452  11.148   3.915   1.102
 9051W        W16453   0.476   9.330   0.315
 9052W        W16454  18.815   0.751   9.027
 9053W        W16455  18.668   2.603   1.359
 9054W        W16456  11.855   3.528   8.478
 9055W        W16457  17.787   3.352   8.352
 9056W        W16458   7.577   4.017   1.388
 9057W        W16459   5.443   0.758   8.943
 9058W        W16460  10.190   5.224   9.355
 9059W        W16461  18.549   8.231   8.803
 9060W        W16462   2.247   1.122   2.227
 9061W        W16463   1.213   9.496   8.143
 9062W        W16464   1.496   7.392   0.597
 9063W        W16465   2.247   1.815   2.813
 9064W        W16466   1.729   2.919   0.037
 9065W        W16467  11.056   6.033   0.700
 9066W        W16468   9.032   0.350   8.718
 9067W        W16469  13.523   3.607   9.252
 9068W        W16470  13.171   6.114   0.675
 9069W        W16471  10.387   2.890   2.550
 9070W        W16472  10.121   3.200   8.989
 9071W        W16473   5.922   9.904   0.725
 9072W        W16474   8.984   5.840   7.581
 9073W        W16475  17.952   7.221   2.532
 9074W        W16476   1.376   7.733   8.178
 9075W        W16477  17.927   5.146   7.590
 9076W        W16478   7.019   9.412   0.190
 9077W        W16479  16.897   9.923   7.903
 9078W        W16480   6.177   0.904   0.759
 9079W        W16481  17.115   2.630   1.341
 9080W        W16482  16.800   8.320   8.622
 9081W        W16483  17.022   4.974   8.087
 9082W        W16484  11.456   7.389   7.997
 9083W        W16485  13.086   5.271   8.924
 9084W        W16486  10.212   3.664   9.198
 9085W        W16487  11.457   4.323   8.436
 9086W        W16488   0.909   2.899   7.739
 9087W        W16489   7.449   6.400   0.072
 9088W        W16490  15.992   9.828   1.160
 9089W        W16491   9.690   6.034   0.139
 9090W        W16492  18.158   9.394   0.673
 9091W        W16493   4.753   1.734   9.709
 9092W        W16494   3.535   3.735   8.828
 9093W        W16495  17.566   0.556   0.503
 9094W        W16496  15.432   5.122   8.670
 9095W        W16497  19.457   8.150   8.580
 9096W        W16498   4.849   3.446   8.583
 9097W        W16499  11.255   6.479   8.754
 9098W        W16500   7.738   4.481   9.053
 9099W        W16501  16.572   1.412   2.216
 9100W        W16502  19.958   9.373   9.061
 9101W        W16503   1.415   5.492   8.597
 9102W        W16504   8.330   7.049   0.477
 9103W        W16505  12.193   5.324   8.769
 9104W        W16506   6.249   8.617   2.383
 9105W        W16507  11.118   5.136   1.724
 9106W        W16508   3.868   2.248   2.077
 9107W        W16509  19.983   6.014   9.455
 9108W        W16510   5.301   6.060   1.275
 9109W        W16511  12.366   6.443   0.560
 9110W        W16512  17.643   7.046   1.660
 9111W        W16513   0.269   1.697   9.660
 9112W        W16514  15.187   0.600   9.813
 9113W        W16515   1.890   1.683   8.239
 9114W        W16516  16.455   1.307   8.996
 9115W        W16517   2.488   0.779   0.149
 9116W        W16518   5.894   2.314   9.494
 9117W        W16519   3.109   0.426   8.854
 9118W        W16520   9.451   0.351   9.885
 9119W        W16521  10.337   4.576   8.867
 9120W        W16522   2.269   2.155   9.036
 9121W        W16523   5.295   8.861   0.902
 9122W        W16524   4.575   3.004   8.487
 9123W        W16525   5.065   5.616   1.193
 9124W        W16526   0.698   7.814   7.663
 9125W        W16527   3.829   8.508   2.179
 9126W        W16528   7.276   9.439   0.775
 9127W        W16529  16.947   6.089   9.247
 9128W        W16530   1.898   9.138   9.408
 9129W        W16531  13.269   8.275   8.535
 9130W        W16532   5.190   6.896   9.041
 9131W        W16533   0.444   2.877   7.973
 9132W        W16534  15.455   5.870   7.971
 9133W        W16535  15.155   6.294   8.150
 9134W        W16536   5.233   3.052   7.920
 9135W        W16537  17.470   3.508   8.794
 9136W        W16538   2.163   2.922   0.309
 9137W        W16539  12.184   9.087   9.397
 9138W        W16540   2.880   1.605   8.285
 9139W        W16541   8.670   3.658   0.784
 9140W        W16542   8.457   8.191   9.531
 9141W        W16543  11.905   7.372   8.930
 9142W        W16544   4.489   0.292   7.737
 9143W        W16545   4.075   9.386   1.534
 9144W        W16546   9.742   9.173   7.993
 9145W        W16547   6.222   3.740   9.558
 9146W        W16548   1.450   3.993   0.520
 9147W        W16549   4.003   1.695   0.218
 9148W        W16550  17.336   1.887   1.494
 9149W        W16551  12.423   6.862   8.430
 9150W        W16552   4.307   0.292   2.022
 9151W        W16553  18.841   1.810   0.371
 9152W        W16554   3.714   6.568   8.054
 9153W        W16555  14.961   0.135   7.697
 9154W        W16556   0.959   1.607   7.710
 9155W        W16557   1.918   4.373   0.406
 9156W        W16558  15.378   9.496   8.128
 9157W        W16559  17.303   1.649   8.529
 9158W        W16560   2.208   6.942   2.051
 9159W        W16561   0.646   0.871   9.357
 9160W        W16562   6.754   5.717   9.330
 9161W        W16563  11.448   5.748   7.461
 9162W        W16564   2.374   6.557   1.715
 9163W        W16565  11.465   1.567   1.781
 9164W        W16566  16.176   4.537   1.193
 9165W        W16567   9.188   1.842   9.604
 9166W        W16568   7.246   3.929   2.227
 9167W        W16569   1.325   7.890   0.633
 9168W        W16570   8.756   4.846   8.256
 9169W        W16571   5.204   0.312   1.992
 9170W        W16572  10.234   0.686   8.061
 9171W        W16573  18.764   1.030   7.730
 9172W        W16574  17.271   7.927   1.749
 9173W        W16575  13.105   3.800   1.856
 9174W        W16576  11.987   0.797   9.281
 9175W        W16577   0.547   1.900   1.783
 9176W        W16578   6.945   8.173   1.812
 9177W        W16579   8.330   6.364   8.965
 9178W        W16580  12.769   8.217   8.489
 9179W        W16581   4.222   1.808   9.758
 9180W        W16582   2.767   5.747   0.163
 9181W        W16583  13.766   7.120   0.742
 9182W        W16584  19.442   4.878   0.941
 9183W        W16585  18.534   0.171   0.337
 9184W        W16586  16.406   0.496   7.467
 9185W        W16587   2.746   3.161   8.511
 9186W        W16588   0.746   9.038   1.150
 9187W        W16589   9.869   1.163   9.705
 9188W        W16590  17.924   1.044   7.857
 9189W        W16591   5.718   5.812   2.140
 9190W        W16592   5.116   4.112   9.328
 9191W        W16593  19.667   9.920   7.808
 9192W        W16594  15.567   4.334   0.303
 9193W        W16595  15.212   8.901   0.144
 9194W        W16596  13.605   6.687   7.753
 9195W        W16597   1.216   7.756   7.674
 9196W        W16598  19.468   3.299   2.352
 9197W        W16599   7.629   9.990   2.127
 9198W        W16600   0.688   8.341   1.709
 9199W        W16601  14.139   0.556   7.895
 9200W        W16602  16.765   4.866   1.561
 9201W        W16603  12.570   3.322   8.457
 9202W        W16604  14.398   9.685   0.731
 9203W        W16605  17.405   6.326   0.862
 9204W        W16606  19.814   5.167   0.704
 9205W        W16607  17.231   8.939   8.029
 9206W        W16608  18.322   3.419   9.039
 9207W        W16609  15.168   4.385   2.075
 9208W        W16610  14.303   1.719   2.060
 9209W        W16611  13.828   5.270   8.675
 9210W        W16612  17.269   9.561   9.693
 9211W        W16613   8.296   0.857   0.400
 9212W        W16614  14.417   6.450   8.755
 9213W        W16615   5.036   9.135   0.155
 9214W        W16616   0.169   5.366   2.459
 9215W        W16617   8.598   4.998   0.548
 9216W        W16618   3.781   4.206   8.882
 9217W        W16619  16.950   8.753   2.305
 9218W        W16620  15.966   4.315   1.607
 9219W        W16621  17.958   3.098   7.931
 9220W        W16622  13.322   4.273   1.776
 9221W        W16623   6.404   5.782   8.421
 9222W        W16624  19.341   3.827   9.837
 9223W        W16625   5.010   4.841   0.810
 9224W        W16626   7.824   0.918   2.447
 9225W        W16627   8.487   0.319   1.283
 9226W        W16628  13.240   2.788   1.203
 9227W        W16629   6.539   4.320   7.702
 9228W        W16630  16.589   4.749   2.172
 9229W        W16631   8.684   0.095   2.126
 9230W        W16632   3.016   7.915   1.861
 9231W        W16633  17.620   3.496   1.129
 9232W        W16634   3.125   9.724   1.937
 9233W        W16635  17.898   2.109   1.937
 9234W        W16636  10.672   0.473   9.564
 9235W        W16637  11.221   9.707   8.719
 9236W        W16638   1.581   7.430   9.197
 9237W        W16639   2.489   0.077   2.474
 9238W        W16640  18.800   7.753   1.260
 9239W        W16641  18.999   9.321   8.081
 9240W        W16642  14.805   1.715   1.120
 9241W        W16643   0.616   5.009   1.721
 9242W        W16644   8.376   6.831   8.728
 9243W        W16645  10.156   3.071   7.993
 9244W        W16646  18.861   1.098   8.230
 9245W        W16647   7.169   9.297   7.777
 9246W        W16648  18.424   3.174   0.160
 9247W        W16649   5.348   7.992   1.382
 9248W        W16650   6.687   1.071   9.147
 9249W        W16651  15.757   2.127   9.523
 9250W        W16652   5.142   8.414   8.942
 9251W        W16653   2.456   4.926   1.190
 9252W        W16654   8.562   9.935   9.125
 9253W        W16655   8.926   5.391   0.728
 9254W        W16656  19.484   0.205   0.703
 9255W        W16657   4.213   8.652   8.581
 9256W        W16658  15.803   5.300   1.596
 9257W        W16659  15.441   0.820   7.533
 9258W        W16660  16.164   4.824   0.762
 9259W        W16661   7.760   3.075   0.911
 9260W        W16662  14.327   5.218   1.920
 9261W        W16663  10.674   7.130   7.693
 9262W        W16664   1.969   6.015   8.896
 9263W        W16665  12.329   7.771   1.557
 9264W        W16666  17.268   1.722   0.014
 9265W        W16667  12.217   8.306   2.021
 9266W        W16668  16.396   4.348   0.736
 9267W        W16669   2.611   2.026   9.409
 9268W        W16670   5.795   3.436   9.461
 9269W        W16671  14.531   4.046   0.814
 9270W        W16672   2.465   6.378   1.245
 9271W        W16673   0.792   4.005   8.675
 9272W        W16674  18.487   0.703   9.401
 9273W        W16675   0.883   0.587   1.875
 9274W        W16676  10.078   0.886   1.817
 9275W        W16677  13.064   0.173   7.505
 9276W        W16678  11.556   6.521   8.343
 9277W        W16679   1.458   0.775   7.536
 9278W        W16680  14.436   1.238   1.950
 9279W        W16681  11.844   7.462   0.202
 9280W        W16682  12.931   5.616   0.537
 9281W        W16683   5.338   8.489   1.255
 9282W        W16684  18.833   4.468   9.805
 9283W        W16685  11.059   3.525   8.074
 9284W        W16686   8.626   7.141   0.891
 9285W        W16687   1.226   3.847   8.474
 9286W        W16688   5.091   2.169   8.490
 9287W        W16689   3.533   8.202   9.742
 9288W        W16690   1.390   4.495   0.552
 9289W        W16691   8.243   6.802   0.936
 9290W        W16692   3.672   2.865   0.694
 9291W        W16693  14.172   4.174   0.487
 9292W        W16694  10.535   8.166   7.625
 9293W        W16695  17.529   8.062   7.677
 9294W        W16696   3.163   1.206   2.290
 9295W        W16697   4.994   9.763   9.660
 9296W        W16698   1.689   8.684   1.622
 9297W        W16699  14.501   1.924   2.479
 9298W        W16700   0.016   6.032   0.740
 9299W        W16701   3.696   5.176   9.065
 9300W        W16702  19.806   8.330   1.824
 9301W        W16703   5.844   9.213   8.258
 9302W        W16704  15.554   3.107   1.763
 9303W        W16705   0.333   5.929   9.873
 9304W        W16706   5.067   2.543   2.087
 9305W        W16707  12.384   2.746   8.647
 9306W        W16708  14.867   3.654   7.943
 9307W        W16709   8.878   2.375   1.220
 9308W        W16710   1.341   5.765   2.175
 9309W        W16711   2.367   2.906   7.651
 9310W        W16712   9.553   3.229   0.538
 9311W        W16713  19.325   1.902   2.320
 9312W        W16714   5.484   7.412   2.106
 9313W        W16715   7.859   4.928   8.038
 9314W        W16716   0.568   3.875   9.118
 9315W        W16717  13.625   4.526   9.838
 9316W        W16718   1.164   8.485   1.822
 9317W        W16719  16.772   7.955   0.957
 9318W        W16720   8.960   9.404   1.383
 9319W        W16721   4.624   0.485   0.247
 9320W        W16722  18.973   8.048   2.341
 9321W        W16723   0.276   0.188   1.772
 9322W        W16724  16.308   5.733   8.877
 9323W        W16725  15.292   7.071   0.659
 9324W        W16726  17.855   5.436   1.283
 9325W        W16727  15.277   7.620   7.736
 9326W        W16728  19.442   8.927   1.324
 9327W        W16729   2.938   4.422   0.278
 9328W        W16730   5.683   5.321   2.299
 9329W        W16731   1.489   4.148   1.854
 9330W        W16732   5.858   7.876   8.511
 9331W        W16733   7.090   4.927   0.187
 9332W        W16734  16.267   1.660   0.682
 9333W        W16735  16.104   6.168   9.649
 9334W        W16736  14.852   9.200   2.203
 9335W        W16737   1.833   7.293   2.104
 9336W        W16738  14.226   6.123   9.163
 9337W        W16739   9.821   3.115   8.568
 9338W        W16740   5.534   5.600   8.957
 9339W        W16741  16.608   2.013   8.449
 9340W        W16742   1.014   4.908   1.402
 9341W        W16743  19.220   5.569   9.090
 9342W        W16744  13.922   6.298   7.598
 9343W        W16745   4.149   2.137   9.379
 9344W        W16746   3.731   8.461   8.830
 9345W        W16747   8.417   1.437   1.431
 9346W        W16748  15.361   4.801   0.383
 9347W        W16749  12.413   3.989   1.282
 9348W        W16750   3.441   2.180   7.680
 9349W        W16751   3.695   2.146   0.205
 9350W        W16752   4.226   4.864   0.473
 9351W        W16753   5.732   1.058   9.363
 9352W        W16754  16.656   2.312   8.996
 9353W        W16755  13.681   6.034   0.641
 9354W        W16756   5.248   9.348   9.770
 9355W        W16757  12.692   5.560   0.073
 9356W        W16758   5.455   6.785   1.645
 9357W        W16759  11.890   9.076   9.819
 9358W        W16760  15.550   4.521   9.397
 9359W        W16761  14.400   5.933   1.089
 9360W        W16762  13.508   5.364   8.280
 9361W        W16763  15.732   9.871   0.043
 9362W        W16764   5.085   6.056   9.878
 9363W        W16765   2.606   7.895   8.725
 9364W        W16766  10.829   7.179   8.218
 9365W        W16767   5.927   1.554   0.104
 9366W        W16768  19.339   4.273   8.948
 9367W        W16769   9.873   8.863   9.381
 9368W        W16770   7.654   2.200   8.336
 9369W        W16771   7.162   3.058   8.388
 9370W        W16772   2.082   6.049   1.306
 9371W        W16773   6.690   2.063   0.041
 9372W        W16774   1.050   4.199   2.129
 9373W        W16775   9.728   7.917   8.022
 9374W        W16776   7.278   8.570   1.751
 9375W        W16777   3.304   8.101   2.268
 9376W        W16778  18.940   7.226   1.249
 9377W        W16779  16.891   2.504   9.447
 9378W        W16780   2.045   5.708   8.442
 9379W        W16781  16.579   0.872   8.751
 9380W        W16782  13.410   6.084   1.139
 9381W        W16783   1.853   2.954   1.502
 9382W        W16784   8.353   4.957   8.562
 9383W        W16785  18.947   4.920   9.582
 9384W        W16786   9.052   1.473   2.351
 9385W        W16787  19.260   3.771   8.819
 9386W        W16788   4.581   0.572   9.181
 9387W        W16789   2.518   5.678   7.653
 9388W        W16790   1.034   6.982   8.135
 9389W        W16791   8.059   8.797   8.475
 9390W        W16792  15.182   2.376   0.901
 9391W        W16793  13.248   7.223   9.344
 9392W        W16794  17.626   1.533   1.246
 9393W        W16795  13.658   2.543   9.855
 9394W        W16796  16.013   9.393   1.624
 9395W        W16797   6.038   6.626   0.380
 9396W        W16798  19.799   3.629   1.389
 9397W        W16799   4.588   7.558   8.266
 9398W        W16800   3.683   3.956   0.187
 9399W        W16801   1.680   4.790   9.316
 9400W        W16802  15.286   6.800   8.259
 9401W        W16803  19.952   9.814   9.361
 9402W        W16804  17.259   9.499   1.557
 9403W        W16805   6.162   6.850   8.953
 9404W        W16806  19.774   8.641   7.904
 9405W        W16807   2.819   4.416   1.062
 9406W        W16808   1.012   7.523   0.467
 9407W        W16809   0.936   5.347   0.309
 9408W        W16810  10.520   5.989   9.738
 9409W        W16811  10.918   0.330   1.601
 9410W        W16812   4.496   6.888   0.713
 9411W        W16813   1.782   8.891   7.863
 9412W        W16814  16.881   2.998   1.040
 9413W        W16815  14.106   0.302   2.081
 9414W        W16816   1.676   1.742   9.558
 9415W        W16817  10.400   8.317   8.936
 9416W        W16818  12.808   3.392   1.824
 9417W        W16819  12.511   4.064   8.973
 9418W        W16820   4.567   5.962   2.326
 9419W        W16821  17.857   2.599   1.798
 9420W        W16822   7.582   1.815   2.308
 9421W        W16823   7.992   8.332   9.786
 9422W        W16824  19.336   1.819   0.156
 9423W        W16825   5.498   9.466   9.014
 9424W        W16826   9.947   3.752   0.548
 9425W        W16827  12.780   3.794   8.602
 9426W        W16828  17.803   2.512   9.666
 9427W        W16829  17.367   0.436   9.467
 9428W        W16830   2.393   0.852   2.654
 9429W        W16831   7.815   9.659   8.047
 9430W        W16832  13.334   0.869   1.064
 9431W        W16833  15.840   1.080   7.666
 9432W        W16834  17.337   9.933   9.339
 9433W        W16835  14.880   2.009   9.392
 9434W        W16836  18.327   9.697   0.270
 9435W        W16837  12.732   8.595   2.131
 9436W        W16838  13.911   1.961   0.831
 9437W        W16839   7.898   3.632   8.529
 9438W        W16840  17.613   2.124   9.141
 9439W        W16841  16.851   9.671   8.398
 9440W        W16842  17.633   0.871   9.547
 9441W        W16843   6.374   3.710   1.491
 9442W        W16844  13.886   3.350   0.920
 9443W        W16845   2.953   7.158   9.086
 9444W        W16846  10.238   7.513   0.994
 9445W        W16847   1.730   0.581   8.312
 9446W        W16848   1.941   4.328   1.572
 9447W        W16849   9.509   0.284   1.020
 9448W        W16850  15.498   6.234   1.704
 9449W        W16851   1.945   5.240   9.300
 9450W        W16852   6.669   2.634   9.685
 9451W        W16853   5.141   9.415   2.475
 9452W        W16854   6.700   2.549   0.853
 9453W        W16855  11.963   0.930   2.296
 9454W        W16856   0.939   0.694   7.671
 9455W        W16857  16.716   5.941   0.608
 9456W        W16858   3.203   4.078   2.778
 9457W        W16859   2.630   2.832   2.106
 9458W        W16860   1.648   0.187   8.638
 9459W        W16861   6.117   4.231   9.377
 9460W        W16862  19.992   0.612   0.438
 9461W        W16863  16.547   2.079   7.940
 9462W        W16864   5.815   4.795   8.188
 9463W        W16865  11.636   3.801   1.129
 9464W        W16866  13.893   3.298   9.420
 9465W        W16867  15.314   8.844   8.762
 9466W        W16868  14.909   5.026   1.328
 9467W        W16869  17.146   6.086   9.759
 9468W        W16870  19.673   6.990   1.628
 9469W        W16871  14.838   0.095   1.494
 9470W        W16872   7.361   9.339   2.056
 9471W        W16873  15.827   2.554   0.255
 9472W        W16874  14.858   2.920   0.112
 9473W        W16875   7.347   1.863   8.058
 9474W        W16876  18.305   5.359   1.028
 9475W        W16877  11.112   4.377   0.860
 9476W        W16878  18.994   6.826   9.511
 9477W        W16879   6.350   0.308   8.196
 9478W        W16880   2.403   4.389   0.174
 9479W        W16881  12.625   9.757   9.805
 9480W        W16882  13.461   5.018   9.135
 9481W        W16883   6.849   4.710   9.390
 9482W        W16884   2.602   7.368   8.747
 9483W        W16885  16.774   4.466   8.608
 9484W        W16886  13.487   9.713   9.737
 9485W        W16887  15.693   1.839   1.955
 9486W        W16888  14.542   1.584   1.596
 9487W        W16889  16.002   2.162   9.967
 9488W        W16890   5.436   8.864   9.871
 9489W        W16891  11.625   1.129   1.977
 9490W        W16892   6.708   8.840   0.230
 9491W        W16893  15.688   3.529   2.171
 9492W        W16894   8.600   1.190   0.648
 9493W        W16895  12.972   0.678   7.828
 9494W        W16896   7.018   4.335   2.006
 9495W        W16897   7.178   8.366   8.216
 9496W        W16898   5.308   2.181   1.781
 9497W        W16899  16.918   3.865   1.125
 9498W        W16900  10.469   6.287   7.959
 9499W        W16901  16.032   7.498   1.815
 9500W        W16902   7.048   1.243   0.878
 9501W        W16903   6.227   7.234   8.191
 9502W        W16904   1.860   3.997   8.941
 9503W        W16905  17.146   4.757   1.099
 9504W        W16906  17.129   3.416   1.220
 9505W        W16907  16.982   3.307   8.743
 9506W        W16908   5.070   4.346   8.373
 9507W        W16909   5.723   2.575   9.098
 9508W        W16910  16.117   5.754   2.606
 9509W        W16911  18.640   9.857   8.976
 9510W        W16912  14.522   1.252   7.862
 9511W        W16913  11.050   1.630   2.067
 9512W        W16914   5.033   9.848   1.288
 9513W        W16915  11.214   1.160   1.625
 9514W        W16916  16.535   9.543   7.969
 9515W        W16917  19.201   5.567   8.575
 9516W        W16918   5.727   8.309   2.344
 9517W        W16919  15.582   5.734   7.484
 9518W        W16920  12.171   7.858   2.372
 9519W        W16921  18.590   1.235   1.640
 9520W        W16922   0.580   0.526   8.987
 9521W        W16923  12.846   0.901   9.764
 9522W        W16924  15.697   7.899   8.002
 9523W        W16925   2.295   7.941   0.615
 9524W        W16926  18.424   2.861   7.833
 9525W        W16927  17.569   2.932   9.849
 9526W        W16928   1.879   2.461   0.330
 9527W        W16929  13.365   0.813   0.519
 9528W        W16930   1.490   8.691   8.229
 9529W        W16931  11.852   0.348   1.054
 9530W        W16932  14.013   6.327   0.380
 9531W        W16933   5.008   6.808   0.766
 9532W        W16934  17.860   4.394   9.493
 9533W        W16935   5.656   0.007   2.042
 9534W        W16936  19.504   5.973   2.446
 9535W        W16937   3.747   7.798   0.551
 9536W        W16938  11.521   5.617   9.169
 9537W        W16939  12.524   7.889   1.998
 9538W        W16940  11.536   1.823   8.000
 9539W        W16941   8.705   2.542   8.926
 9540W        W16942  19.602   4.272   9.835
 9541W        W16943   8.568   0.593  -0.000
 9542W        W16944  14.951   1.323   1.888
 9543W        W16945  18.788   5.330   1.212
 9544W        W16946   4.495   1.670   1.092
 9545W        W16947  13.163   0.426   0.230
 9546W        W16948  11.200   8.962   1.236
 9547W        W16949  10.916   8.397   7.993
 9548W        W16950  13.052   3.201   7.852
 9549W        W16951   8.646   5.854   0.806
 9550W        W16952  14.902   3.446   1.530
 9551W        W16953  19.388   8.150   1.053
 9552W        W16954   6.667   6.943   9.736
 9553W        W16955  16.664   2.918   9.685
 9554W        W16956  12.223   7.864   9.010
 9555W        W16957   9.824   2.303   1.325
 9556W        W16958  16.386   9.447   8.441
 9557W        W16959   0.819   7.113   2.233
 9558W        W16960   6.116   8.318   2.009
 9559W        W16961   2.536   9.537   8.188
 9560ION     NA16962  15.037   3.262   0.653
 9561ION     NA16963   8.083   3.491   0.350
 9562ION     NA16964   3.910   3.636   1.198
 9563ION     NA16965  10.569   2.747   2.186
 9564ION     NA16966  11.834   6.204   1.891
 9565ION     NA16967  18.364   4.260   1.644
  20.00000  10.00000  10.00000
